ITEM: TIMESTEP
0
ITEM: NUMBER OF ATOMS
800
ITEM: BOX BOUNDS pp pp pp
0.0000000000000000e+00 4.2119999999999997e+00
0.0000000000000000e+00 4.2119999999999997e+01
0.0000000000000000e+00 4.2119999999999997e+01
ITEM: ATOMS id type xs ys zs 
1 1 0 0.0155066 0.0155066 
2 2 0.5 0.0155066 0.0155066 
3 2 0 0.00465742 0.0546574 
4 1 0.5 0.00465742 0.0546574 
41 2 0 0.0558762 0.00587616 
42 1 0.5 0.0558762 0.00587616 
43 1 0 0.0400713 0.0400713 
44 2 0.5 0.0400713 0.0400713 
45 2 0 0.0464512 0.0964512 
46 1 0.5 0.0464512 0.0964512 
81 1 0 0.102673 0.00267346 
82 2 0.5 0.102673 0.00267346 
83 2 0 0.115587 0.0655874 
84 1 0.5 0.115587 0.0655874 
85 1 0 0.0836375 0.0836375 
86 2 0.5 0.0836375 0.0836375 
123 1 0 0.13411 0.0341097 
124 2 0.5 0.13411 0.0341097 
125 2 0 0.162755 0.112755 
126 1 0.5 0.162755 0.112755 
161 1 0 0.204284 0.00428411 
162 2 0.5 0.204284 0.00428411 
163 2 0 0.189725 0.0397253 
164 1 0.5 0.189725 0.0397253 
165 1 0 0.192456 0.0924565 
166 2 0.5 0.192456 0.0924565 
203 1 0 0.239066 0.0390657 
204 2 0.5 0.239066 0.0390657 
201 2 0 0.259472 0.009472 
202 1 0.5 0.259472 0.009472 
205 2 0 0.260039 0.110039 
206 1 0.5 0.260039 0.110039 
243 2 0 0.310122 0.0601223 
244 1 0.5 0.310122 0.0601223 
245 1 0 0.312688 0.112688 
246 2 0.5 0.312688 0.112688 
281 2 0 0.362835 0.0128348 
282 1 0.5 0.362835 0.0128348 
283 1 0 0.339872 0.0398721 
284 2 0.5 0.339872 0.0398721 
285 2 0 0.338818 0.0888177 
286 1 0.5 0.338818 0.0888177 
321 1 0 0.40351 0.00351028 
322 2 0.5 0.40351 0.00351028 
323 2 0 0.387572 0.0375716 
324 1 0.5 0.387572 0.0375716 
325 1 0 0.392429 0.0924287 
326 2 0.5 0.392429 0.0924287 
361 2 0 0.462843 0.0128432 
362 1 0.5 0.462843 0.0128432 
363 1 0 0.433875 0.0338754 
364 2 0.5 0.433875 0.0338754 
365 2 0 0.438506 0.0885065 
366 1 0.5 0.438506 0.0885065 
405 1 0 0.496424 0.0964238 
406 2 0.5 0.496424 0.0964238 
403 2 0 0.513428 0.0634284 
404 1 0.5 0.513428 0.0634284 
443 1 0 0.544697 0.0446968 
444 2 0.5 0.544697 0.0446968 
445 2 0 0.542476 0.0924761 
446 1 0.5 0.542476 0.0924761 
481 1 0 0.607219 0.00721899 
482 2 0.5 0.607219 0.00721899 
483 2 0 0.596298 0.0462979 
484 1 0.5 0.596298 0.0462979 
485 1 0 0.593785 0.0937848 
486 2 0.5 0.593785 0.0937848 
521 2 0 0.650756 0.00075613 
522 1 0.5 0.650756 0.00075613 
523 1 0 0.659534 0.0595344 
524 2 0.5 0.659534 0.0595344 
525 2 0 0.666202 0.116202 
526 1 0.5 0.666202 0.116202 
561 1 0 0.702906 0.00290565 
562 2 0.5 0.702906 0.00290565 
563 2 0 0.693653 0.0436526 
564 1 0.5 0.693653 0.0436526 
565 1 0 0.688213 0.0882128 
566 2 0.5 0.688213 0.0882128 
603 1 0 0.736792 0.0367916 
604 2 0.5 0.736792 0.0367916 
605 2 0 0.749124 0.0991238 
606 1 0.5 0.749124 0.0991238 
641 1 0 0.811517 0.011517 
642 2 0.5 0.811517 0.011517 
643 2 0 0.789185 0.0391854 
644 1 0.5 0.789185 0.0391854 
645 1 0 0.788507 0.0885068 
646 2 0.5 0.788507 0.0885068 
681 2 0 0.855624 0.00562419 
682 1 0.5 0.855624 0.00562419 
683 1 0 0.854996 0.0549962 
684 2 0.5 0.854996 0.0549962 
685 2 0 0.853824 0.103824 
686 1 0.5 0.853824 0.103824 
5 1 0 0.984238 0.0842383 
6 2 0.5 0.984238 0.0842383 
723 2 0 0.916395 0.0663951 
724 1 0.5 0.916395 0.0663951 
725 1 0 0.910175 0.110175 
726 2 0.5 0.910175 0.110175 
761 2 0 0.960576 0.0105762 
762 1 0.5 0.960576 0.0105762 
763 1 0 0.937484 0.0374839 
764 2 0.5 0.937484 0.0374839 
765 2 0 0.951729 0.101729 
766 1 0.5 0.951729 0.101729 
7 2 0 0.00224341 0.152243 
8 1 0.5 0.00224341 0.152243 
9 1 0 0.0122226 0.212223 
10 2 0.5 0.0122226 0.212223 
47 1 0 0.0374787 0.137479 
48 2 0.5 0.0374787 0.137479 
49 2 0 0.0380197 0.18802 
50 1 0.5 0.0380197 0.18802 
51 1 0 0.0473038 0.247304 
52 2 0.5 0.0473038 0.247304 
87 2 0 0.110905 0.160905 
88 1 0.5 0.110905 0.160905 
89 1 0 0.088706 0.188706 
90 2 0.5 0.088706 0.188706 
127 1 0 0.159718 0.159718 
128 2 0.5 0.159718 0.159718 
129 2 0 0.140033 0.190033 
130 1 0.5 0.140033 0.190033 
167 2 0 0.207993 0.157993 
168 1 0.5 0.207993 0.157993 
169 1 0 0.191458 0.191458 
170 2 0.5 0.191458 0.191458 
209 2 0 0.249938 0.199938 
210 1 0.5 0.249938 0.199938 
207 1 0 0.250923 0.150923 
208 2 0.5 0.250923 0.150923 
247 2 0 0.308423 0.158423 
248 1 0.5 0.308423 0.158423 
249 1 0 0.287144 0.187144 
250 2 0.5 0.287144 0.187144 
287 1 0 0.338705 0.138705 
288 2 0.5 0.338705 0.138705 
289 2 0 0.354055 0.204055 
290 1 0.5 0.354055 0.204055 
291 1 0 0.336433 0.236433 
292 2 0.5 0.336433 0.236433 
327 2 0 0.398574 0.148574 
328 1 0.5 0.398574 0.148574 
329 1 0 0.388232 0.188232 
330 2 0.5 0.388232 0.188232 
367 1 0 0.454631 0.154631 
368 2 0.5 0.454631 0.154631 
369 2 0 0.436545 0.186545 
370 1 0.5 0.436545 0.186545 
407 2 0 0.484237 0.134237 
408 1 0.5 0.484237 0.134237 
409 1 0 0.506179 0.206179 
410 2 0.5 0.506179 0.206179 
447 1 0 0.546484 0.146484 
448 2 0.5 0.546484 0.146484 
449 2 0 0.549085 0.199085 
450 1 0.5 0.549085 0.199085 
451 1 0 0.536739 0.236739 
452 2 0.5 0.536739 0.236739 
487 2 0 0.612644 0.162644 
488 1 0.5 0.612644 0.162644 
489 1 0 0.589329 0.189329 
490 2 0.5 0.589329 0.189329 
527 1 0 0.659882 0.159882 
528 2 0.5 0.659882 0.159882 
529 2 0 0.65744 0.20744 
530 1 0.5 0.65744 0.20744 
531 1 0 0.647219 0.247219 
532 2 0.5 0.647219 0.247219 
567 2 0 0.683741 0.133741 
568 1 0.5 0.683741 0.133741 
569 1 0 0.709287 0.209287 
570 2 0.5 0.709287 0.209287 
609 2 0 0.746885 0.196885 
610 1 0.5 0.746885 0.196885 
611 1 0 0.749808 0.249808 
612 2 0.5 0.749808 0.249808 
607 1 0 0.762769 0.162769 
608 2 0.5 0.762769 0.162769 
647 2 0 0.802059 0.152059 
648 1 0.5 0.802059 0.152059 
649 1 0 0.795384 0.195384 
650 2 0.5 0.795384 0.195384 
687 1 0 0.836051 0.136051 
688 2 0.5 0.836051 0.136051 
689 2 0 0.849607 0.199607 
690 1 0.5 0.849607 0.199607 
691 1 0 0.835591 0.235591 
692 2 0.5 0.835591 0.235591 
11 2 0 0.988786 0.238786 
12 1 0.5 0.988786 0.238786 
727 2 0 0.885997 0.135997 
728 1 0.5 0.885997 0.135997 
729 1 0 0.910975 0.210975 
730 2 0.5 0.910975 0.210975 
767 1 0 0.94428 0.14428 
768 2 0.5 0.94428 0.14428 
769 2 0 0.944835 0.194835 
770 1 0.5 0.944835 0.194835 
13 1 0 0.000736542 0.300737 
14 2 0.5 0.000736542 0.300737 
53 2 0 0.0595952 0.309595 
54 1 0.5 0.0595952 0.309595 
55 1 0 0.0649911 0.364991 
56 2 0.5 0.0649911 0.364991 
91 2 0 0.112589 0.262589 
92 1 0.5 0.112589 0.262589 
93 1 0 0.0909164 0.290916 
94 2 0.5 0.0909164 0.290916 
95 2 0 0.0971405 0.347141 
96 1 0.5 0.0971405 0.347141 
131 1 0 0.166569 0.266569 
132 2 0.5 0.166569 0.266569 
133 2 0 0.165415 0.315415 
134 1 0.5 0.165415 0.315415 
135 1 0 0.158469 0.358469 
136 2 0.5 0.158469 0.358469 
171 2 0 0.203061 0.253061 
172 1 0.5 0.203061 0.253061 
173 1 0 0.183969 0.283969 
174 2 0.5 0.183969 0.283969 
175 2 0 0.210266 0.360266 
176 1 0.5 0.210266 0.360266 
213 2 0 0.239967 0.289967 
214 1 0.5 0.239967 0.289967 
215 1 0 0.244855 0.344855 
216 2 0.5 0.244855 0.344855 
211 1 0 0.252202 0.252202 
212 2 0.5 0.252202 0.252202 
251 2 0 0.310582 0.260582 
252 1 0.5 0.310582 0.260582 
253 1 0 0.292423 0.292423 
254 2 0.5 0.292423 0.292423 
255 2 0 0.313801 0.363801 
256 1 0.5 0.313801 0.363801 
293 2 0 0.338654 0.288654 
294 1 0.5 0.338654 0.288654 
295 1 0 0.34708 0.34708 
296 2 0.5 0.34708 0.34708 
331 2 0 0.406648 0.256648 
332 1 0.5 0.406648 0.256648 
333 1 0 0.398675 0.298675 
334 2 0.5 0.398675 0.298675 
335 2 0 0.413378 0.363378 
336 1 0.5 0.413378 0.363378 
371 1 0 0.464717 0.264717 
372 2 0.5 0.464717 0.264717 
373 2 0 0.454713 0.304713 
374 1 0.5 0.454713 0.304713 
375 1 0 0.45494 0.35494 
376 2 0.5 0.45494 0.35494 
413 1 0 0.496316 0.296316 
414 2 0.5 0.496316 0.296316 
411 2 0 0.502151 0.252151 
412 1 0.5 0.502151 0.252151 
415 2 0 0.505232 0.355232 
416 1 0.5 0.505232 0.355232 
453 2 0 0.540528 0.290528 
454 1 0.5 0.540528 0.290528 
455 1 0 0.538156 0.338156 
456 2 0.5 0.538156 0.338156 
491 2 0 0.604854 0.254854 
492 1 0.5 0.604854 0.254854 
493 1 0 0.595251 0.295251 
494 2 0.5 0.595251 0.295251 
495 2 0 0.592234 0.342234 
496 1 0.5 0.592234 0.342234 
533 2 0 0.648683 0.298683 
534 1 0.5 0.648683 0.298683 
535 1 0 0.641574 0.341574 
536 2 0.5 0.641574 0.341574 
571 2 0 0.713727 0.263727 
572 1 0.5 0.713727 0.263727 
573 1 0 0.689433 0.289433 
574 2 0.5 0.689433 0.289433 
575 2 0 0.712714 0.362714 
576 1 0.5 0.712714 0.362714 
613 2 0 0.736393 0.286393 
614 1 0.5 0.736393 0.286393 
615 1 0 0.742557 0.342557 
616 2 0.5 0.742557 0.342557 
651 2 0 0.800203 0.250203 
652 1 0.5 0.800203 0.250203 
653 1 0 0.814503 0.314503 
654 2 0.5 0.814503 0.314503 
655 2 0 0.80731 0.35731 
656 1 0.5 0.80731 0.35731 
693 2 0 0.834093 0.284093 
694 1 0.5 0.834093 0.284093 
695 1 0 0.844433 0.344433 
696 2 0.5 0.844433 0.344433 
15 2 0 0.997899 0.347899 
16 1 0.5 0.997899 0.347899 
731 2 0 0.912423 0.262423 
732 1 0.5 0.912423 0.262423 
733 1 0 0.887133 0.287133 
734 2 0.5 0.887133 0.287133 
735 2 0 0.913402 0.363402 
736 1 0.5 0.913402 0.363402 
771 1 0 0.965897 0.265897 
772 2 0.5 0.965897 0.265897 
773 2 0 0.934547 0.284547 
774 1 0.5 0.934547 0.284547 
775 1 0 0.939346 0.339346 
776 2 0.5 0.939346 0.339346 
17 1 0 0.013448 0.413448 
18 2 0.5 0.013448 0.413448 
57 2 0 0.054522 0.404522 
58 1 0.5 0.054522 0.404522 
59 1 0 0.0462137 0.446214 
60 2 0.5 0.0462137 0.446214 
97 1 0 0.11365 0.41365 
98 2 0.5 0.11365 0.41365 
99 2 0 0.103046 0.453046 
100 1 0.5 0.103046 0.453046 
101 1 0 0.0833967 0.483397 
102 2 0.5 0.0833967 0.483397 
137 2 0 0.148179 0.398179 
138 1 0.5 0.148179 0.398179 
139 1 0 0.159883 0.459883 
140 2 0.5 0.159883 0.459883 
177 1 0 0.185101 0.385101 
178 2 0.5 0.185101 0.385101 
179 2 0 0.208903 0.458903 
180 1 0.5 0.208903 0.458903 
181 1 0 0.192701 0.492701 
182 2 0.5 0.192701 0.492701 
219 1 0 0.243876 0.443876 
220 2 0.5 0.243876 0.443876 
221 2 0 0.239274 0.489274 
222 1 0.5 0.239274 0.489274 
217 2 0 0.256219 0.406219 
218 1 0.5 0.256219 0.406219 
257 1 0 0.298352 0.398352 
258 2 0.5 0.298352 0.398352 
259 2 0 0.294952 0.444952 
260 1 0.5 0.294952 0.444952 
261 1 0 0.293607 0.493607 
262 2 0.5 0.293607 0.493607 
297 2 0 0.339992 0.389992 
298 1 0.5 0.339992 0.389992 
299 1 0 0.34108 0.44108 
300 2 0.5 0.34108 0.44108 
301 2 0 0.335705 0.485705 
302 1 0.5 0.335705 0.485705 
337 1 0 0.39534 0.39534 
338 2 0.5 0.39534 0.39534 
339 2 0 0.407609 0.457609 
340 1 0.5 0.407609 0.457609 
341 1 0 0.391408 0.491408 
342 2 0.5 0.391408 0.491408 
377 2 0 0.446801 0.396801 
378 1 0.5 0.446801 0.396801 
379 1 0 0.43939 0.43939 
380 2 0.5 0.43939 0.43939 
381 2 0 0.447477 0.497477 
382 1 0.5 0.447477 0.497477 
417 1 0 0.510849 0.410849 
418 2 0.5 0.510849 0.410849 
419 2 0 0.50806 0.45806 
420 1 0.5 0.50806 0.45806 
457 2 0 0.540097 0.390097 
458 1 0.5 0.540097 0.390097 
459 1 0 0.535041 0.435041 
460 2 0.5 0.535041 0.435041 
461 2 0 0.535365 0.485365 
462 1 0.5 0.535365 0.485365 
497 1 0 0.602207 0.402207 
498 2 0.5 0.602207 0.402207 
499 2 0 0.614592 0.464592 
500 1 0.5 0.614592 0.464592 
501 1 0 0.585075 0.485075 
502 2 0.5 0.585075 0.485075 
537 2 0 0.647032 0.397032 
538 1 0.5 0.647032 0.397032 
539 1 0 0.637381 0.437381 
540 2 0.5 0.637381 0.437381 
577 1 0 0.713748 0.413748 
578 2 0.5 0.713748 0.413748 
579 2 0 0.712627 0.462627 
580 1 0.5 0.712627 0.462627 
581 1 0 0.686759 0.486759 
582 2 0.5 0.686759 0.486759 
619 1 0 0.74706 0.44706 
620 2 0.5 0.74706 0.44706 
617 2 0 0.753254 0.403254 
618 1 0.5 0.753254 0.403254 
657 1 0 0.784412 0.384412 
658 2 0.5 0.784412 0.384412 
659 2 0 0.79317 0.44317 
660 1 0.5 0.79317 0.44317 
661 1 0 0.78974 0.48974 
662 2 0.5 0.78974 0.48974 
697 2 0 0.8368 0.3868 
698 1 0.5 0.8368 0.3868 
699 1 0 0.854107 0.454107 
700 2 0.5 0.854107 0.454107 
19 2 0 0.998867 0.448867 
20 1 0.5 0.998867 0.448867 
21 1 0 0.988121 0.488121 
22 2 0.5 0.988121 0.488121 
737 1 0 0.888185 0.388185 
738 2 0.5 0.888185 0.388185 
739 2 0 0.910583 0.460583 
740 1 0.5 0.910583 0.460583 
777 2 0 0.944273 0.394273 
778 1 0.5 0.944273 0.394273 
779 1 0 0.960575 0.460575 
780 2 0.5 0.960575 0.460575 
781 2 0 0.945347 0.495347 
782 1 0.5 0.945347 0.495347 
25 1 0 0.0133158 0.613316 
26 2 0.5 0.0133158 0.613316 
61 2 0 0.0628338 0.512834 
62 1 0.5 0.0628338 0.512834 
63 1 0 0.0424886 0.542489 
64 2 0.5 0.0424886 0.542489 
65 2 0 0.0539273 0.603927 
66 1 0.5 0.0539273 0.603927 
103 2 0 0.0912431 0.541243 
104 1 0.5 0.0912431 0.541243 
105 1 0 0.109118 0.609118 
106 2 0.5 0.109118 0.609118 
141 2 0 0.152626 0.502626 
142 1 0.5 0.152626 0.502626 
143 1 0 0.142753 0.542753 
144 2 0.5 0.142753 0.542753 
145 2 0 0.155775 0.605775 
146 1 0.5 0.155775 0.605775 
183 2 0 0.193433 0.543433 
184 1 0.5 0.193433 0.543433 
185 1 0 0.199145 0.599145 
186 2 0.5 0.199145 0.599145 
225 2 0 0.238617 0.588617 
226 1 0.5 0.238617 0.588617 
223 1 0 0.265898 0.565898 
224 2 0.5 0.265898 0.565898 
263 2 0 0.28869 0.53869 
264 1 0.5 0.28869 0.53869 
265 1 0 0.291737 0.591737 
266 2 0.5 0.291737 0.591737 
303 1 0 0.351838 0.551838 
304 2 0.5 0.351838 0.551838 
305 2 0 0.354984 0.604984 
306 1 0.5 0.354984 0.604984 
343 2 0 0.414195 0.564195 
344 1 0.5 0.414195 0.564195 
345 1 0 0.390516 0.590516 
346 2 0.5 0.390516 0.590516 
383 1 0 0.466509 0.566509 
384 2 0.5 0.466509 0.566509 
385 2 0 0.447232 0.597232 
386 1 0.5 0.447232 0.597232 
423 2 0 0.497863 0.547863 
424 1 0.5 0.497863 0.547863 
421 1 0 0.507946 0.507946 
422 2 0.5 0.507946 0.507946 
425 1 0 0.502138 0.602138 
426 2 0.5 0.502138 0.602138 
463 1 0 0.557575 0.557575 
464 2 0.5 0.557575 0.557575 
465 2 0 0.554837 0.604837 
466 1 0.5 0.554837 0.604837 
503 2 0 0.614239 0.564239 
504 1 0.5 0.614239 0.564239 
505 1 0 0.599675 0.599675 
506 2 0.5 0.599675 0.599675 
541 2 0 0.659996 0.509996 
542 1 0.5 0.659996 0.509996 
543 1 0 0.663013 0.563013 
544 2 0.5 0.663013 0.563013 
545 2 0 0.65074 0.60074 
546 1 0.5 0.65074 0.60074 
583 2 0 0.692916 0.542916 
584 1 0.5 0.692916 0.542916 
585 1 0 0.705262 0.605262 
586 2 0.5 0.705262 0.605262 
623 1 0 0.74338 0.54338 
624 2 0.5 0.74338 0.54338 
621 2 0 0.757437 0.507437 
622 1 0.5 0.757437 0.507437 
625 2 0 0.765418 0.615418 
626 1 0.5 0.765418 0.615418 
663 2 0 0.794856 0.544856 
664 1 0.5 0.794856 0.544856 
665 1 0 0.786325 0.586325 
666 2 0.5 0.786325 0.586325 
701 2 0 0.861527 0.511527 
702 1 0.5 0.861527 0.511527 
703 1 0 0.850472 0.550472 
704 2 0.5 0.850472 0.550472 
705 2 0 0.861439 0.611439 
706 1 0.5 0.861439 0.611439 
23 2 0 0.999222 0.549222 
24 1 0.5 0.999222 0.549222 
741 1 0 0.9164 0.5164 
742 2 0.5 0.9164 0.5164 
743 2 0 0.90746 0.55746 
744 1 0.5 0.90746 0.55746 
745 1 0 0.88922 0.58922 
746 2 0.5 0.88922 0.58922 
783 1 0 0.95468 0.55468 
784 2 0.5 0.95468 0.55468 
785 2 0 0.943472 0.593472 
786 1 0.5 0.943472 0.593472 
29 1 0 0.00747769 0.707478 
30 2 0.5 0.00747769 0.707478 
67 1 0 0.0630802 0.66308 
68 2 0.5 0.0630802 0.66308 
69 2 0 0.0568412 0.706841 
70 1 0.5 0.0568412 0.706841 
71 1 0 0.0473567 0.747357 
72 2 0.5 0.0473567 0.747357 
107 2 0 0.0866508 0.636651 
108 1 0.5 0.0866508 0.636651 
109 1 0 0.11483 0.71483 
110 2 0.5 0.11483 0.71483 
147 1 0 0.164749 0.664749 
148 2 0.5 0.164749 0.664749 
149 2 0 0.139082 0.689082 
150 1 0.5 0.139082 0.689082 
187 2 0 0.195037 0.645037 
188 1 0.5 0.195037 0.645037 
189 1 0 0.201338 0.701338 
190 2 0.5 0.201338 0.701338 
191 2 0 0.190281 0.740281 
192 1 0.5 0.190281 0.740281 
227 1 0 0.245712 0.645712 
228 2 0.5 0.245712 0.645712 
229 2 0 0.243553 0.693553 
230 1 0.5 0.243553 0.693553 
267 2 0 0.306944 0.656944 
268 1 0.5 0.306944 0.656944 
269 1 0 0.285275 0.685275 
270 2 0.5 0.285275 0.685275 
271 2 0 0.288531 0.738531 
272 1 0.5 0.288531 0.738531 
307 1 0 0.333616 0.633616 
308 2 0.5 0.333616 0.633616 
309 2 0 0.339678 0.689678 
310 1 0.5 0.339678 0.689678 
311 1 0 0.346585 0.746585 
312 2 0.5 0.346585 0.746585 
347 2 0 0.413449 0.663449 
348 1 0.5 0.413449 0.663449 
349 1 0 0.396249 0.696249 
350 2 0.5 0.396249 0.696249 
351 2 0 0.393411 0.743411 
352 1 0.5 0.393411 0.743411 
387 1 0 0.441919 0.641919 
388 2 0.5 0.441919 0.641919 
389 2 0 0.435532 0.685532 
390 1 0.5 0.435532 0.685532 
391 1 0 0.434338 0.734338 
392 2 0.5 0.434338 0.734338 
431 2 0 0.499343 0.749343 
432 1 0.5 0.499343 0.749343 
427 2 0 0.509696 0.659696 
428 1 0.5 0.509696 0.659696 
429 1 0 0.510905 0.710905 
430 2 0.5 0.510905 0.710905 
467 1 0 0.53704 0.63704 
468 2 0.5 0.53704 0.63704 
469 2 0 0.554103 0.704103 
470 1 0.5 0.554103 0.704103 
471 1 0 0.542547 0.742547 
472 2 0.5 0.542547 0.742547 
507 2 0 0.60115 0.65115 
508 1 0.5 0.60115 0.65115 
509 1 0 0.604286 0.704286 
510 2 0.5 0.604286 0.704286 
511 2 0 0.588296 0.738296 
512 1 0.5 0.588296 0.738296 
547 1 0 0.646779 0.646779 
548 2 0.5 0.646779 0.646779 
549 2 0 0.648167 0.698167 
550 1 0.5 0.648167 0.698167 
587 2 0 0.703917 0.653917 
588 1 0.5 0.703917 0.653917 
589 1 0 0.701494 0.701494 
590 2 0.5 0.701494 0.701494 
627 1 0 0.74807 0.64807 
628 2 0.5 0.74807 0.64807 
631 1 0 0.746248 0.746248 
632 2 0.5 0.746248 0.746248 
629 2 0 0.751916 0.701916 
630 1 0.5 0.751916 0.701916 
667 2 0 0.807609 0.657609 
668 1 0.5 0.807609 0.657609 
669 1 0 0.792304 0.692304 
670 2 0.5 0.792304 0.692304 
671 2 0 0.793872 0.743872 
672 1 0.5 0.793872 0.743872 
707 1 0 0.835342 0.635342 
708 2 0.5 0.835342 0.635342 
709 2 0 0.84365 0.69365 
710 1 0.5 0.84365 0.69365 
27 2 0 0.999316 0.649316 
28 1 0.5 0.999316 0.649316 
747 2 0 0.891972 0.641972 
748 1 0.5 0.891972 0.641972 
749 1 0 0.893397 0.693397 
750 2 0.5 0.893397 0.693397 
787 1 0 0.947211 0.647211 
788 2 0.5 0.947211 0.647211 
789 2 0 0.933876 0.683876 
790 1 0.5 0.933876 0.683876 
791 1 0 0.945773 0.745773 
792 2 0.5 0.945773 0.745773 
31 2 0 0.0153811 0.765381 
32 1 0.5 0.0153811 0.765381 
33 1 0 0.00527018 0.80527 
34 2 0.5 0.00527018 0.80527 
35 2 0 0.00966074 0.859661 
36 1 0.5 0.00966074 0.859661 
73 2 0 0.058749 0.808749 
74 1 0.5 0.058749 0.808749 
75 1 0 0.0603656 0.860366 
76 2 0.5 0.0603656 0.860366 
111 2 0 0.105075 0.755075 
112 1 0.5 0.105075 0.755075 
113 1 0 0.113096 0.813096 
114 2 0.5 0.113096 0.813096 
115 2 0 0.0922567 0.842257 
116 1 0.5 0.0922567 0.842257 
151 1 0 0.155917 0.755917 
152 2 0.5 0.155917 0.755917 
153 2 0 0.165552 0.815552 
154 1 0.5 0.165552 0.815552 
155 1 0 0.164594 0.864594 
156 2 0.5 0.164594 0.864594 
193 1 0 0.197364 0.797364 
194 2 0.5 0.197364 0.797364 
195 2 0 0.197001 0.847001 
196 1 0.5 0.197001 0.847001 
233 2 0 0.242113 0.792113 
234 1 0.5 0.242113 0.792113 
231 1 0 0.257024 0.757024 
232 2 0.5 0.257024 0.757024 
235 1 0 0.253193 0.853193 
236 2 0.5 0.253193 0.853193 
273 1 0 0.311604 0.811604 
274 2 0.5 0.311604 0.811604 
275 2 0 0.297757 0.847757 
276 1 0.5 0.297757 0.847757 
313 2 0 0.356718 0.806718 
314 1 0.5 0.356718 0.806718 
315 1 0 0.359384 0.859384 
316 2 0.5 0.359384 0.859384 
353 1 0 0.413485 0.813485 
354 2 0.5 0.413485 0.813485 
355 2 0 0.390374 0.840374 
356 1 0.5 0.390374 0.840374 
393 2 0 0.460628 0.810628 
394 1 0.5 0.460628 0.810628 
395 1 0 0.444947 0.844947 
396 2 0.5 0.444947 0.844947 
433 1 0 0.497707 0.797707 
434 2 0.5 0.497707 0.797707 
435 2 0 0.509916 0.859916 
436 1 0.5 0.509916 0.859916 
473 2 0 0.540485 0.790485 
474 1 0.5 0.540485 0.790485 
475 1 0 0.536236 0.836236 
476 2 0.5 0.536236 0.836236 
513 1 0 0.602619 0.802619 
514 2 0.5 0.602619 0.802619 
515 2 0 0.612063 0.862063 
516 1 0.5 0.612063 0.862063 
551 1 0 0.656251 0.756251 
552 2 0.5 0.656251 0.756251 
553 2 0 0.664476 0.814476 
554 1 0.5 0.664476 0.814476 
555 1 0 0.642005 0.842005 
556 2 0.5 0.642005 0.842005 
591 2 0 0.70072 0.75072 
592 1 0.5 0.70072 0.75072 
593 1 0 0.715387 0.815387 
594 2 0.5 0.715387 0.815387 
595 2 0 0.701637 0.851637 
596 1 0.5 0.701637 0.851637 
635 1 0 0.741685 0.841685 
636 2 0.5 0.741685 0.841685 
633 2 0 0.75373 0.80373 
634 1 0.5 0.75373 0.80373 
673 1 0 0.793787 0.793787 
674 2 0.5 0.793787 0.793787 
675 2 0 0.815615 0.865615 
676 1 0.5 0.815615 0.865615 
711 1 0 0.863035 0.763035 
712 2 0.5 0.863035 0.763035 
713 2 0 0.844551 0.794551 
714 1 0.5 0.844551 0.794551 
715 1 0 0.865654 0.865654 
716 2 0.5 0.865654 0.865654 
751 2 0 0.900547 0.750547 
752 1 0.5 0.900547 0.750547 
753 1 0 0.91003 0.81003 
754 2 0.5 0.91003 0.81003 
755 2 0 0.916395 0.866395 
756 1 0.5 0.916395 0.866395 
793 2 0 0.9352 0.7852 
794 1 0.5 0.9352 0.7852 
795 1 0 0.95213 0.85213 
796 2 0.5 0.95213 0.85213 
37 1 0 0.00872669 0.908727 
38 2 0.5 0.00872669 0.908727 
77 2 0 0.0528316 0.902832 
78 1 0.5 0.0528316 0.902832 
79 1 0 0.0351238 0.935124 
80 2 0.5 0.0351238 0.935124 
117 1 0 0.106911 0.906911 
118 2 0.5 0.106911 0.906911 
119 2 0 0.108732 0.958732 
120 1 0.5 0.108732 0.958732 
121 2 0 0.1495 0.9995 
122 1 0.5 0.1495 0.9995 
157 2 0 0.151193 0.901193 
158 1 0.5 0.151193 0.901193 
159 1 0 0.160005 0.960005 
160 2 0.5 0.160005 0.960005 
197 1 0 0.202254 0.902254 
198 2 0.5 0.202254 0.902254 
199 2 0 0.191265 0.941265 
200 1 0.5 0.191265 0.941265 
239 1 0 0.237323 0.937323 
240 2 0.5 0.237323 0.937323 
237 2 0 0.254958 0.904958 
238 1 0.5 0.254958 0.904958 
241 1 0 0.294477 0.994477 
242 2 0.5 0.294477 0.994477 
277 1 0 0.290109 0.890109 
278 2 0.5 0.290109 0.890109 
279 2 0 0.307326 0.957326 
280 1 0.5 0.307326 0.957326 
317 2 0 0.350241 0.900241 
318 1 0.5 0.350241 0.900241 
319 1 0 0.334126 0.934126 
320 2 0.5 0.334126 0.934126 
357 1 0 0.3994 0.8994 
358 2 0.5 0.3994 0.8994 
359 2 0 0.408466 0.958466 
360 1 0.5 0.408466 0.958466 
397 2 0 0.462342 0.912342 
398 1 0.5 0.462342 0.912342 
399 1 0 0.44365 0.94365 
400 2 0.5 0.44365 0.94365 
401 1 0 0.495905 0.995905 
402 2 0.5 0.495905 0.995905 
439 2 0 0.491579 0.941579 
440 1 0.5 0.491579 0.941579 
437 1 0 0.508577 0.908577 
438 2 0.5 0.508577 0.908577 
441 2 0 0.54192 0.99192 
442 1 0.5 0.54192 0.99192 
477 2 0 0.56228 0.91228 
478 1 0.5 0.56228 0.91228 
479 1 0 0.555235 0.955235 
480 2 0.5 0.555235 0.955235 
517 1 0 0.601111 0.901111 
518 2 0.5 0.601111 0.901111 
519 2 0 0.584284 0.934284 
520 1 0.5 0.584284 0.934284 
557 2 0 0.638694 0.888694 
558 1 0.5 0.638694 0.888694 
559 1 0 0.665117 0.965117 
560 2 0.5 0.665117 0.965117 
597 1 0 0.695722 0.895722 
598 2 0.5 0.695722 0.895722 
599 2 0 0.684591 0.934591 
600 1 0.5 0.684591 0.934591 
601 2 0 0.746703 0.996703 
602 1 0.5 0.746703 0.996703 
637 2 0 0.764251 0.914251 
638 1 0.5 0.764251 0.914251 
639 1 0 0.756822 0.956822 
640 2 0.5 0.756822 0.956822 
677 1 0 0.790013 0.890013 
678 2 0.5 0.790013 0.890013 
679 2 0 0.811644 0.961644 
680 1 0.5 0.811644 0.961644 
717 2 0 0.841161 0.891161 
718 1 0.5 0.841161 0.891161 
719 1 0 0.839592 0.939592 
720 2 0.5 0.839592 0.939592 
39 2 0 0.994743 0.944743 
40 1 0.5 0.994743 0.944743 
721 1 0 0.888341 0.988341 
722 2 0.5 0.888341 0.988341 
757 1 0 0.883543 0.883543 
758 2 0.5 0.883543 0.883543 
759 2 0 0.897578 0.947578 
760 1 0.5 0.897578 0.947578 
797 2 0 0.935039 0.885039 
798 1 0.5 0.935039 0.885039 
799 1 0 0.959924 0.959924 
800 2 0.5 0.959924 0.959924 
ITEM: TIMESTEP
1
ITEM: NUMBER OF ATOMS
800
ITEM: BOX BOUNDS pp pp pp
0.0000000000000000e+00 4.2119999999999997e+00
0.0000000000000000e+00 4.2119999999999997e+01
0.0000000000000000e+00 4.2119999999999997e+01
ITEM: ATOMS id type xs ys zs 
1 1 -1.27448e-19 0.0153233 0.0153176 
2 2 0.5 0.0149835 0.0149784 
3 2 -1.52938e-19 0.00464576 0.0546056 
4 1 0.5 0.00464715 0.0546071 
41 2 -1.52938e-19 0.0559473 0.00578949 
42 1 0.5 0.0559465 0.00579005 
43 1 0 0.0402411 0.0402744 
44 2 0.5 0.0405797 0.0406136 
45 2 -3.31366e-19 0.0464114 0.0964389 
46 1 0.5 0.0464106 0.0964378 
81 1 2.54897e-20 0.102611 0.00261581 
82 2 0.5 0.102561 0.00256623 
83 2 1.52938e-19 0.115607 0.0656105 
84 1 0.5 0.115606 0.0656109 
85 1 2.03917e-19 0.0836144 0.0836974 
86 2 0.5 0.0836145 0.0836981 
123 1 -1.94359e-19 0.134218 0.0341549 
124 2 0.5 0.134269 0.0342044 
125 2 -5.09793e-20 0.162653 0.112826 
126 1 0.5 0.162654 0.112825 
161 1 -3.05876e-19 0.204277 0.00417709 
162 2 0.5 0.204259 0.00415802 
163 2 1.27448e-19 0.189725 0.0398284 
164 1 0.5 0.189723 0.0398245 
165 1 1.27448e-20 0.192561 0.0923825 
166 2 0.5 0.192562 0.0923817 
203 1 2.03917e-19 0.239035 0.0392279 
204 2 0.5 0.239052 0.0392474 
201 2 -1.52938e-19 0.259444 0.00938632 
202 1 0.5 0.259445 0.0093871 
205 2 1.01959e-19 0.260044 0.110007 
206 1 0.5 0.260043 0.110007 
243 2 -3.05876e-19 0.309809 0.0600073 
244 1 0.5 0.309919 0.0601157 
245 1 -7.6469e-20 0.312435 0.112633 
246 2 0.5 0.312205 0.112405 
281 2 5.09793e-20 0.362435 0.0122548 
282 1 0.5 0.362758 0.0125792 
283 1 3.56855e-19 0.339895 0.0399272 
284 2 0.5 0.339896 0.0399285 
285 2 2.03917e-19 0.339145 0.0889347 
286 1 0.5 0.339034 0.0888265 
321 1 -2.54897e-20 0.403506 0.0033524 
322 2 0.5 0.403439 0.00328364 
323 2 1.65683e-19 0.388009 0.0381333 
324 1 0.5 0.387685 0.0378083 
325 1 -1.01959e-19 0.392427 0.0924282 
326 2 0.5 0.392426 0.0924277 
361 2 5.09793e-20 0.462845 0.0127986 
362 1 0.5 0.462845 0.0127992 
363 1 -1.14704e-19 0.433833 0.0340439 
364 2 0.5 0.4339 0.0341129 
365 2 2.54897e-20 0.438508 0.0884889 
366 1 0.5 0.438508 0.0884895 
405 1 -1.01959e-19 0.496373 0.0964516 
406 2 0.5 0.496372 0.096452 
403 2 1.27448e-20 0.513193 0.0632074 
404 1 0.5 0.513293 0.0633069 
443 1 5.09793e-20 0.544806 0.044631 
444 2 0.5 0.544807 0.0446304 
445 2 -5.09793e-20 0.542683 0.0926784 
446 1 0.5 0.542584 0.0925795 
481 1 1.01959e-19 0.60721 0.00717515 
482 2 0.5 0.60721 0.00717479 
483 2 1.40193e-19 0.596291 0.0463506 
484 1 0.5 0.596291 0.0463501 
485 1 -2.54897e-20 0.593781 0.0937869 
486 2 0.5 0.593781 0.0937866 
521 2 1.27448e-19 0.650743 0.000822456 
522 1 0.5 0.650744 0.000822396 
523 1 -2.03917e-19 0.659353 0.0594935 
524 2 0.5 0.659242 0.0593838 
525 2 -2.03917e-19 0.663867 0.114037 
526 1 0.5 0.665739 0.115908 
561 1 1.01959e-19 0.702869 0.00285172 
562 2 0.5 0.702852 0.00283455 
563 2 0 0.693726 0.0436511 
564 1 0.5 0.693724 0.0436499 
565 1 5.09793e-20 0.688403 0.0882166 
566 2 0.5 0.688514 0.0883252 
603 1 7.6469e-20 0.736867 0.0368753 
604 2 0.5 0.736891 0.0369002 
605 2 2.03917e-19 0.749082 0.0991292 
606 1 0.5 0.749082 0.0991293 
641 1 -7.6469e-20 0.811577 0.0113764 
642 2 0.5 0.811577 0.011374 
643 2 -2.54897e-20 0.789106 0.0393304 
644 1 0.5 0.789106 0.039328 
645 1 -1.27448e-19 0.78854 0.0884961 
646 2 0.5 0.788541 0.0884957 
681 2 -2.54897e-20 0.855553 0.0056985 
682 1 0.5 0.855554 0.00569734 
683 1 -1.01959e-19 0.855017 0.0550133 
684 2 0.5 0.855018 0.0550143 
685 2 -3.56855e-19 0.853777 0.103607 
686 1 0.5 0.853817 0.103649 
5 1 -2.54897e-20 0.984266 0.0843101 
6 2 0.5 0.984266 0.0843106 
723 2 -2.69235e-19 0.916254 0.0664367 
724 1 0.5 0.916271 0.0664509 
725 1 2.54897e-20 0.910188 0.110033 
726 2 0.5 0.910166 0.110009 
761 2 -1.2247e-19 0.960674 0.0104367 
762 1 0.5 0.960673 0.0104383 
763 1 -3.05876e-19 0.937476 0.0374958 
764 2 0.5 0.937476 0.0374962 
765 2 -1.79224e-19 0.951707 0.101809 
766 1 0.5 0.951692 0.101793 
7 2 5.09793e-20 0.0021119 0.152228 
8 1 0.5 0.00212677 0.152241 
9 1 -1.01959e-19 0.0121514 0.212142 
10 2 0.5 0.0121341 0.212124 
47 1 -5.09793e-20 0.0375386 0.13749 
48 2 0.5 0.0375392 0.13749 
49 2 2.54897e-20 0.038207 0.187975 
50 1 0.5 0.0381921 0.187962 
51 1 -1.01959e-19 0.0473338 0.247329 
52 2 0.5 0.0473495 0.247345 
87 2 -1.52938e-19 0.110811 0.160613 
88 1 0.5 0.110907 0.16071 
89 1 2.16662e-19 0.0886354 0.188814 
90 2 0.5 0.0886343 0.188815 
127 1 -1.01959e-19 0.159716 0.159542 
128 2 0.5 0.159671 0.159495 
129 2 -2.54897e-19 0.14015 0.19033 
130 1 0.5 0.140053 0.190233 
167 2 -7.6469e-20 0.208005 0.157898 
168 1 0.5 0.208006 0.1579 
169 1 0 0.191473 0.191617 
170 2 0.5 0.191519 0.191664 
209 2 0 0.249892 0.199976 
210 1 0.5 0.249891 0.199974 
207 1 0 0.250903 0.150919 
208 2 0.5 0.250891 0.150908 
247 2 0 0.308387 0.158375 
248 1 0.5 0.308388 0.158376 
249 1 -1.27448e-20 0.287148 0.187274 
250 2 0.5 0.28716 0.187287 
287 1 2.03917e-19 0.338946 0.138751 
288 2 0.5 0.339176 0.13898 
289 2 -2.54897e-20 0.354017 0.20399 
290 1 0.5 0.354017 0.20399 
291 1 -7.6469e-20 0.336506 0.23645 
292 2 0.5 0.336507 0.23645 
327 2 -1.01959e-19 0.39854 0.148484 
328 1 0.5 0.398547 0.148492 
329 1 2.80386e-19 0.388327 0.188241 
330 2 0.5 0.388327 0.188241 
367 1 5.09793e-20 0.45455 0.154596 
368 2 0.5 0.45455 0.154595 
369 2 -7.6469e-20 0.436527 0.186686 
370 1 0.5 0.436521 0.186679 
407 2 -5.09793e-19 0.484358 0.134238 
408 1 0.5 0.484357 0.134238 
409 1 3.05876e-19 0.506087 0.206109 
410 2 0.5 0.506022 0.206045 
447 1 -5.09793e-20 0.546467 0.146467 
448 2 0.5 0.546466 0.146465 
449 2 2.03917e-19 0.549076 0.199015 
450 1 0.5 0.549076 0.199015 
451 1 1.01959e-19 0.536887 0.236849 
452 2 0.5 0.536952 0.236915 
487 2 -2.54897e-20 0.612712 0.162514 
488 1 0.5 0.612711 0.162516 
489 1 7.6469e-20 0.589298 0.189456 
490 2 0.5 0.589299 0.189458 
527 1 -1.01959e-19 0.659771 0.159997 
528 2 0.5 0.65977 0.159998 
529 2 -5.09793e-20 0.657478 0.207412 
530 1 0.5 0.657477 0.207412 
531 1 1.01959e-19 0.647213 0.247246 
532 2 0.5 0.647212 0.247245 
567 2 2.03917e-19 0.686084 0.135868 
568 1 0.5 0.684212 0.133998 
569 1 -2.03917e-19 0.709203 0.209302 
570 2 0.5 0.7092 0.2093 
609 2 -3.44111e-19 0.746905 0.19696 
610 1 0.5 0.746904 0.196959 
611 1 -3.05876e-19 0.749929 0.249742 
612 2 0.5 0.749933 0.249743 
607 1 2.54897e-20 0.762707 0.162622 
608 2 0.5 0.762672 0.162586 
647 2 0 0.802001 0.152067 
648 1 0.5 0.802002 0.152067 
649 1 -3.05876e-19 0.795432 0.195447 
650 2 0.5 0.795464 0.19548 
687 1 2.80386e-19 0.836116 0.136123 
688 2 0.5 0.836117 0.136124 
689 2 -8.92139e-20 0.849635 0.199543 
690 1 0.5 0.849635 0.199544 
691 1 0 0.835654 0.235656 
692 2 0.5 0.835658 0.23566 
11 2 1.01959e-19 0.988826 0.238823 
12 1 0.5 0.988825 0.238822 
727 2 -7.6469e-20 0.885999 0.136212 
728 1 0.5 0.88596 0.136171 
729 1 -2.80386e-19 0.910885 0.211028 
730 2 0.5 0.910884 0.211029 
767 1 -1.27448e-19 0.944326 0.144357 
768 2 0.5 0.944349 0.14438 
769 2 0 0.944905 0.19477 
770 1 0.5 0.944904 0.194771 
13 1 5.09793e-20 0.000783125 0.300789 
14 2 0.5 0.000801292 0.300807 
53 2 -7.6469e-20 0.0594336 0.30961 
54 1 0.5 0.0594425 0.309617 
55 1 5.65552e-20 0.0648959 0.364974 
56 2 0.5 0.064895 0.364974 
91 2 5.09793e-20 0.112684 0.262467 
92 1 0.5 0.112683 0.262467 
93 1 1.01959e-19 0.0909538 0.291003 
94 2 0.5 0.090955 0.291005 
95 2 2.54897e-20 0.0972859 0.347118 
96 1 0.5 0.0972766 0.347111 
131 1 -1.01959e-19 0.166117 0.266225 
132 2 0.5 0.164195 0.264304 
133 2 1.27448e-19 0.165348 0.315491 
134 1 0.5 0.165349 0.315491 