ITEM: TIMESTEP
0
ITEM: NUMBER OF ATOMS
72
ITEM: BOX BOUNDS pp pp pp
0 4.212
-200 200
-200 200
ITEM: ATOMS id type xs ys zs 
1 1 0 0.5 0.5 
2 2 0.5 0.5 0.5 
3 2 0 0.5 0.505265 
4 1 0.5 0.5 0.505265 
5 1 0 0.5 0.51053 
6 2 0.5 0.5 0.51053 
13 2 0 0.505265 0.5 
14 1 0.5 0.505265 0.5 
15 1 0 0.505265 0.505265 
16 2 0.5 0.505265 0.505265 
17 2 0 0.505265 0.51053 
18 1 0.5 0.505265 0.51053 
25 1 0 0.51053 0.5 
26 2 0.5 0.51053 0.5 
27 2 0 0.51053 0.505265 
28 1 0.5 0.51053 0.505265 
29 1 0 0.51053 0.51053 
30 2 0.5 0.51053 0.51053 
37 2 0 0.515795 0.5 
38 1 0.5 0.515795 0.5 
39 1 0 0.515795 0.505265 
40 2 0.5 0.515795 0.505265 
41 2 0 0.515795 0.51053 
42 1 0.5 0.515795 0.51053 
49 1 0 0.52106 0.5 
50 2 0.5 0.52106 0.5 
51 2 0 0.52106 0.505265 
52 1 0.5 0.52106 0.505265 
53 1 0 0.52106 0.51053 
54 2 0.5 0.52106 0.51053 
61 2 0 0.526325 0.5 
62 1 0.5 0.526325 0.5 
63 1 0 0.526325 0.505265 
64 2 0.5 0.526325 0.505265 
65 2 0 0.526325 0.51053 
66 1 0.5 0.526325 0.51053 
7 2 0 0.5 0.515795 
8 1 0.5 0.5 0.515795 
9 1 0 0.5 0.52106 
10 2 0.5 0.5 0.52106 
19 1 0 0.505265 0.515795 
20 2 0.5 0.505265 0.515795 
21 2 0 0.505265 0.52106 
22 1 0.5 0.505265 0.52106 
31 2 0 0.51053 0.515795 
32 1 0.5 0.51053 0.515795 
33 1 0 0.51053 0.52106 
34 2 0.5 0.51053 0.52106 
43 1 0 0.515795 0.515795 
44 2 0.5 0.515795 0.515795 
45 2 0 0.515795 0.52106 
46 1 0.5 0.515795 0.52106 
55 2 0 0.52106 0.515795 
56 1 0.5 0.52106 0.515795 
57 1 0 0.52106 0.52106 
58 2 0.5 0.52106 0.52106 
67 1 0 0.526325 0.515795 
68 2 0.5 0.526325 0.515795 
69 2 0 0.526325 0.52106 
70 1 0.5 0.526325 0.52106 
11 2 0 0.5 0.526325 
12 1 0.5 0.5 0.526325 
23 1 0 0.505265 0.526325 
24 2 0.5 0.505265 0.526325 
35 2 0 0.51053 0.526325 
36 1 0.5 0.51053 0.526325 
47 1 0 0.515795 0.526325 
48 2 0.5 0.515795 0.526325 
59 2 0 0.52106 0.526325 
60 1 0.5 0.52106 0.526325 
71 1 0 0.526325 0.526325 
72 2 0.5 0.526325 0.526325 
ITEM: TIMESTEP
1
ITEM: NUMBER OF ATOMS
72
ITEM: BOX BOUNDS pp pp pp
0 4.212
-200 200
-200 200
ITEM: ATOMS id type xs ys zs 
1 1 1.10082e-17 0.500202 0.500202 
2 2 0.5 0.500227 0.500227 
3 2 -8.25614e-18 0.500017 0.505241 
4 1 0.5 0.499983 0.505237 
5 1 -3.30246e-17 0.499989 0.51053 
6 2 0.5 0.500023 0.510531 
13 2 -2.75205e-18 0.505241 0.500017 
14 1 0.5 0.505237 0.499983 
15 1 1.27282e-17 0.505252 0.505252 
16 2 0.5 0.505257 0.505257 
17 2 -3.57766e-17 0.505255 0.51053 
18 1 0.5 0.50525 0.510529 
25 1 2.20164e-17 0.51053 0.499989 
26 2 0.5 0.510531 0.500023 
27 2 -1.37602e-17 0.51053 0.505255 
28 1 0.5 0.510529 0.50525 
29 1 1.10082e-17 0.510529 0.510529 
30 2 0.5 0.510529 0.510529 
37 2 -3.02725e-17 0.515794 0.500023 
38 1 0.5 0.515795 0.499989 
39 1 -2.13284e-17 0.515796 0.50525 
40 2 0.5 0.515795 0.505255 
41 2 -3.85287e-17 0.515796 0.510529 
42 1 0.5 0.515796 0.510529 
49 1 -2.20164e-17 0.521088 0.499983 
50 2 0.5 0.521084 0.500017 
51 2 -3.85287e-17 0.521068 0.505257 
52 1 0.5 0.521073 0.505252 
53 1 -4.40328e-17 0.521075 0.510529 
54 2 0.5 0.52107 0.51053 
61 2 -1.10082e-17 0.526098 0.500227 
62 1 0.5 0.526123 0.500202 
63 1 -1.92643e-17 0.526342 0.505237 
64 2 0.5 0.526308 0.505241 
65 2 -2.20164e-17 0.526302 0.510531 
66 1 0.5 0.526336 0.51053 
7 2 8.25614e-18 0.500023 0.515794 
8 1 0.5 0.499989 0.515795 
9 1 -1.10082e-17 0.499983 0.521088 
10 2 0.5 0.500017 0.521084 
19 1 -4.12807e-18 0.50525 0.515796 
20 2 0.5 0.505255 0.515795 
21 2 8.25614e-18 0.505257 0.521068 
22 1 0.5 0.505252 0.521073 
31 2 2.20164e-17 0.510529 0.515796 
32 1 0.5 0.510529 0.515796 
33 1 -4.40328e-17 0.510529 0.521075 
34 2 0.5 0.51053 0.52107 
43 1 4.12807e-18 0.515796 0.515796 
44 2 0.5 0.515796 0.515796 
45 2 -2.75205e-17 0.515795 0.52107 
46 1 0.5 0.515796 0.521075 
55 2 1.10082e-17 0.52107 0.515795 
56 1 0.5 0.521075 0.515796 
57 1 -1.10082e-17 0.521073 0.521073 
58 2 0.5 0.521068 0.521068 
67 1 1.92643e-17 0.526336 0.515795 
68 2 0.5 0.526302 0.515794 
69 2 -6.60492e-17 0.526308 0.521084 
70 1 0.5 0.526342 0.521088 
11 2 0 0.500227 0.526098 
12 1 0.5 0.500202 0.526123 
23 1 9.63217e-18 0.505237 0.526342 
24 2 0.5 0.505241 0.526308 
35 2 -1.10082e-17 0.510531 0.526302 
36 1 0.5 0.51053 0.526336 
47 1 -8.25614e-18 0.515795 0.526336 
48 2 0.5 0.515794 0.526302 
59 2 -2.20164e-17 0.521084 0.526308 
60 1 0.5 0.521088 0.526342 
71 1 3.30246e-17 0.526123 0.526123 
72 2 0.5 0.526098 0.526098 
ITEM: TIMESTEP
2
ITEM: NUMBER OF ATOMS
72
ITEM: BOX BOUNDS pp pp pp
0 4.212
-200 200
-200 200
ITEM: ATOMS id type xs ys zs 
1 1 2.65617e-18 0.500262 0.500262 
2 2 0.5 0.500264 0.500264 
3 2 -8.16116e-18 0.5 0.505253 
4 1 0.5 0.500005 0.505258 
5 1 -3.39434e-17 0.500009 0.51053 
6 2 0.5 0.500003 0.51053 
13 2 -2.93684e-18 0.505253 0.5 
14 1 0.5 0.505258 0.500005 
15 1 1.34611e-17 0.50527 0.50527 
16 2 0.5 0.505261 0.505261 
17 2 -2.6815e-17 0.505244 0.510526 
18 1 0.5 0.505255 0.510527 
25 1 2.08973e-17 0.51053 0.500009 
26 2 0.5 0.51053 0.500003 
27 2 -3.32021e-18 0.510526 0.505244 
28 1 0.5 0.510527 0.505255 
29 1 2.08386e-17 0.510529 0.510529 
30 2 0.5 0.510527 0.510527 
37 2 -3.32793e-17 0.515795 0.500003 
38 1 0.5 0.515795 0.500009 
39 1 -3.11618e-17 0.515798 0.505255 
40 2 0.5 0.515799 0.505244 
41 2 -5.60514e-17 0.515798 0.510527 
42 1 0.5 0.515796 0.510529 
49 1 -3.12872e-17 0.521067 0.500005 
50 2 0.5 0.521072 0.5 
51 2 -3.72196e-17 0.521064 0.505261 
52 1 0.5 0.521055 0.50527 
53 1 -3.9197e-17 0.52107 0.510527 
54 2 0.5 0.521081 0.510526 
61 2 -2.08386e-17 0.526061 0.500264 
62 1 0.5 0.526063 0.500262 
63 1 -2.51035e-17 0.52632 0.505258 
64 2 0.5 0.526325 0.505253 
65 2 -1.05073e-17 0.526322 0.51053 
66 1 0.5 0.526316 0.51053 
7 2 1.36808e-17 0.500003 0.515795 
8 1 0.5 0.500009 0.515795 
9 1 -1.56436e-17 0.500005 0.521067 
10 2 0.5 0.5 0.521072 
19 1 5.57883e-18 0.505255 0.515798 
20 2 0.5 0.505244 0.515799 
21 2 2.34214e-17 0.505261 0.521064 
22 1 0.5 0.50527 0.521055 
31 2 1.82998e-17 0.510527 0.515798 
32 1 0.5 0.510529 0.515796 
33 1 -2.62096e-17 0.510527 0.52107 
34 2 0.5 0.510526 0.521081 
43 1 7.1651e-18 0.515796 0.515796 
44 2 0.5 0.515798 0.515798 
45 2 -3.00178e-17 0.515799 0.521081 
46 1 0.5 0.515798 0.52107 
55 2 6.5524e-18 0.521081 0.515799 
56 1 0.5 0.52107 0.515798 
57 1 -2.08386e-17 0.521055 0.521055 
58 2 0.5 0.521064 0.521064 
67 1 1.24408e-17 0.526316 0.515795 
68 2 0.5 0.526322 0.515795 
69 2 -5.23019e-17 0.526325 0.521072 
70 1 0.5 0.52632 0.521067 
11 2 -2.59749e-18 0.500264 0.526061 
12 1 0.5 0.500262 0.526063 
23 1 9.14255e-18 0.505258 0.52632 
24 2 0.5 0.505253 0.526325 
35 2 -2.60336e-17 0.51053 0.526322 
36 1 0.5 0.51053 0.526316 
47 1 -9.13522e-18 0.515795 0.526316 
48 2 0.5 0.515795 0.526322 
59 2 -2.08973e-17 0.521072 0.526325 
60 1 0.5 0.521067 0.52632 
71 1 7.96851e-18 0.526063 0.526063 
72 2 0.5 0.526061 0.526061 
ITEM: TIMESTEP
3
ITEM: NUMBER OF ATOMS
72
ITEM: BOX BOUNDS pp pp pp
0 4.212
-200 200
-200 200
ITEM: ATOMS id type xs ys zs 
1 1 8.83758e-18 0.500343 0.500343 
2 2 0.5 0.500328 0.500328 
3 2 -8.02784e-18 0.500007 0.505346 
4 1 0.5 0.500022 0.50534 
5 1 -3.5233e-17 0.500006 0.51053 
6 2 0.5 0.500001 0.510533 
13 2 8.44153e-18 0.505346 0.500007 
14 1 0.5 0.50534 0.500022 
15 1 -1.70663e-17 0.505307 0.505307 
16 2 0.5 0.505327 0.505327 
17 2 -4.46737e-17 0.50526 0.510525 
18 1 0.5 0.505236 0.510517 
25 1 -9.3203e-18 0.51053 0.500006 
26 2 0.5 0.510533 0.500001 
27 2 3.63993e-17 0.510525 0.50526 
28 1 0.5 0.510517 0.505236 
29 1 -2.26571e-17 0.510521 0.510521 
30 2 0.5 0.51053 0.51053 
37 2 -1.42242e-17 0.515792 0.500001 
38 1 0.5 0.515795 0.500006 
39 1 -7.54011e-17 0.515808 0.505236 
40 2 0.5 0.5158 0.50526 
41 2 -1.44004e-17 0.515795 0.51053 
42 1 0.5 0.515804 0.510521 
49 1 -2.99763e-17 0.520985 0.500022 
50 2 0.5 0.520979 0.500007 
51 2 -3.71726e-17 0.520998 0.505327 
52 1 0.5 0.521019 0.505307 
53 1 1.05605e-17 0.521089 0.510517 
54 2 0.5 0.521065 0.510525 
61 2 -4.89598e-17 0.525997 0.500328 
62 1 0.5 0.525982 0.500343 
63 1 -2.07664e-17 0.526303 0.50534 
64 2 0.5 0.526318 0.505346 
65 2 4.86169e-17 0.526324 0.510533 
66 1 0.5 0.526319 0.51053 
7 2 -5.5615e-18 0.500001 0.515792 
8 1 0.5 0.500006 0.515795 
9 1 3.51437e-17 0.500022 0.520985 
10 2 0.5 0.500007 0.520979 
19 1 4.20313e-17 0.505236 0.515808 
20 2 0.5 0.50526 0.5158 
21 2 3.21743e-17 0.505327 0.520998 
22 1 0.5 0.505307 0.521019 
31 2 9.50233e-18 0.51053 0.515795 
32 1 0.5 0.510521 0.515804 
33 1 2.02919e-17 0.510517 0.521089 
34 2 0.5 0.510525 0.521065 
43 1 -2.97519e-17 0.515804 0.515804 
44 2 0.5 0.515795 0.515795 
45 2 -3.53135e-17 0.515801 0.521065 
46 1 0.5 0.515808 0.521089 
55 2 -2.47676e-17 0.521065 0.515801 
56 1 0.5 0.521089 0.515808 
57 1 -7.76066e-17 0.521019 0.521019 
58 2 0.5 0.520998 0.520998 
67 1 1.18154e-17 0.526319 0.515795 
68 2 0.5 0.526324 0.515792 
69 2 -3.30062e-17 0.526318 0.520979 
70 1 0.5 0.526303 0.520985 
11 2 4.74694e-17 0.500328 0.525997 
12 1 0.5 0.500343 0.525982 
23 1 -1.12393e-17 0.50534 0.526303 
24 2 0.5 0.505346 0.526318 
35 2 -3.27997e-17 0.510533 0.526324 
36 1 0.5 0.51053 0.526319 
47 1 -3.00637e-17 0.515795 0.526319 
48 2 0.5 0.515792 0.526324 
59 2 -4.08116e-17 0.520979 0.526318 
60 1 0.5 0.520985 0.526303 
71 1 -4.86851e-17 0.525982 0.525982 
72 2 0.5 0.525997 0.525997 
ITEM: TIMESTEP
4
ITEM: NUMBER OF ATOMS
72
ITEM: BOX BOUNDS pp pp pp
0 4.212
-200 200
-200 200
ITEM: ATOMS id type xs ys zs 
1 1 3.03261e-17 0.50037 0.50037 
2 2 0.5 0.500374 0.500374 
3 2 -5.26068e-18 0.500034 0.505394 
4 1 0.5 0.500024 0.505391 
5 1 -3.58485e-17 0.499997 0.510542 
6 2 0.5 0.500005 0.510539 
13 2 4.9885e-18 0.505394 0.500034 
14 1 0.5 0.505391 0.500024 
15 1 -2.78209e-17 0.505347 0.505347 
16 2 0.5 0.505348 0.505348 
17 2 -4.62443e-17 0.50525 0.510524 
18 1 0.5 0.505256 0.51053 
25 1 -1.13818e-17 0.510542 0.499997 
26 2 0.5 0.510539 0.500005 
27 2 2.83189e-17 0.510524 0.50525 
28 1 0.5 0.51053 0.505256 
29 1 -3.72348e-17 0.510532 0.510532 
30 2 0.5 0.510525 0.510525 
37 2 -1.20826e-17 0.515786 0.500005 
38 1 0.5 0.515783 0.499997 
39 1 -1.35724e-17 0.515795 0.505256 
40 2 0.5 0.515801 0.50525 
41 2 -6.11019e-18 0.5158 0.510525 
42 1 0.5 0.515793 0.510532 
49 1 -3.24405e-17 0.520934 0.500024 
50 2 0.5 0.520931 0.500034 
51 2 -3.01982e-17 0.520977 0.505348 
52 1 0.5 0.520978 0.505347 
53 1 4.97548e-17 0.521069 0.51053 
54 2 0.5 0.521075 0.510524 
61 2 -5.31107e-17 0.525951 0.500374 
62 1 0.5 0.525955 0.50037 
63 1 -2.75797e-17 0.526301 0.505391 
64 2 0.5 0.526291 0.505394 
65 2 7.37426e-17 0.52632 0.510539 
66 1 0.5 0.526328 0.510542 
7 2 -3.17381e-17 0.500005 0.515786 
8 1 0.5 0.499997 0.515783 
9 1 1.92137e-17 0.500024 0.520934 
10 2 0.5 0.500034 0.520931 
19 1 5.20891e-17 0.505256 0.515795 
20 2 0.5 0.50525 0.515801 
21 2 2.32199e-17 0.505348 0.520977 
22 1 0.5 0.505347 0.520978 
31 2 1.14835e-17 0.510525 0.5158 
32 1 0.5 0.510532 0.515793 
33 1 5.17529e-17 0.51053 0.521069 
34 2 0.5 0.510524 0.521075 
43 1 -4.67661e-17 0.515793 0.515793 
44 2 0.5 0.5158 0.5158 
45 2 -4.09305e-17 0.515801 0.521075 
46 1 0.5 0.515795 0.521069 
55 2 -3.50797e-17 0.521075 0.515801 
56 1 0.5 0.521069 0.515795 
57 1 -6.45308e-17 0.520978 0.520978 
58 2 0.5 0.520977 0.520977 
67 1 -2.38702e-18 0.526328 0.515783 
68 2 0.5 0.52632 0.515786 
69 2 -1.76184e-17 0.526291 0.520931 
70 1 0.5 0.526301 0.520934 
11 2 4.97342e-17 0.500374 0.525951 
12 1 0.5 0.50037 0.525955 
23 1 -1.93246e-17 0.505391 0.526301 
24 2 0.5 0.505394 0.526291 
35 2 -3.29388e-17 0.510539 0.52632 
36 1 0.5 0.510542 0.526328 
47 1 -5.39553e-17 0.515783 0.526328 
48 2 0.5 0.515786 0.52632 
59 2 -5.03152e-17 0.520931 0.526291 
60 1 0.5 0.520934 0.526301 
71 1 -8.19011e-17 0.525955 0.525955 
72 2 0.5 0.525951 0.525951 
ITEM: TIMESTEP
5
ITEM: NUMBER OF ATOMS
72
ITEM: BOX BOUNDS pp pp pp
0 4.212
-200 200
-200 200
ITEM: ATOMS id type xs ys zs 
1 1 3.19964e-17 0.500406 0.500406 
2 2 0.5 0.500416 0.500416 
3 2 4.23428e-18 0.500074 0.50542 
4 1 0.5 0.500062 0.50543 
5 1 -6.91408e-17 0.499994 0.510574 
6 2 0.5 0.500001 0.510575 
13 2 -3.7858e-17 0.50542 0.500074 
14 1 0.5 0.50543 0.500062 
15 1 -6.19519e-17 0.505384 0.505384 
16 2 0.5 0.505372 0.505372 
17 2 -4.55157e-17 0.505276 0.510566 
18 1 0.5 0.505277 0.510558 
25 1 -4.58893e-17 0.510574 0.499994 
26 2 0.5 0.510575 0.500001 
27 2 3.79162e-17 0.510566 0.505276 
28 1 0.5 0.510558 0.505277 
29 1 -4.12914e-17 0.510537 0.510537 
30 2 0.5 0.510551 0.510551 
37 2 8.15317e-18 0.51575 0.500001 
38 1 0.5 0.515751 0.499994 
39 1 2.48145e-17 0.515767 0.505277 
40 2 0.5 0.515759 0.505275 
41 2 -1.34826e-17 0.515774 0.510551 
42 1 0.5 0.515788 0.510537 
49 1 -4.2705e-17 0.520895 0.500062 
50 2 0.5 0.520906 0.500074 
51 2 2.2777e-17 0.520953 0.505372 
52 1 0.5 0.520941 0.505384 
53 1 1.40048e-16 0.521048 0.510558 
54 2 0.5 0.52105 0.510566 
61 2 -4.84051e-17 0.525909 0.500416 
62 1 0.5 0.525919 0.500405 
63 1 -4.66201e-17 0.526263 0.50543 
64 2 0.5 0.526251 0.50542 
65 2 1.60407e-16 0.526324 0.510575 
66 1 0.5 0.526331 0.510574 
7 2 -6.60263e-17 0.500001 0.51575 
8 1 0.5 0.499994 0.515751 
9 1 5.82697e-18 0.500062 0.520895 
10 2 0.5 0.500074 0.520906 
19 1 3.44234e-17 0.505277 0.515767 
20 2 0.5 0.505275 0.515759 
21 2 2.18404e-17 0.505372 0.520953 
22 1 0.5 0.505384 0.520941 
31 2 -1.1433e-17 0.510551 0.515774 
32 1 0.5 0.510537 0.515788 
33 1 5.36097e-17 0.510558 0.521048 
34 2 0.5 0.510566 0.52105 
43 1 -8.66696e-17 0.515788 0.515788 
44 2 0.5 0.515774 0.515774 
45 2 -5.1796e-17 0.515759 0.52105 
46 1 0.5 0.515767 0.521048 
55 2 -8.88113e-17 0.52105 0.515759 
56 1 0.5 0.521048 0.515767 
57 1 1.20078e-17 0.520941 0.520941 
58 2 0.5 0.520953 0.520953 
67 1 1.71307e-20 0.526331 0.515751 
68 2 0.5 0.526324 0.51575 
69 2 -2.10748e-17 0.526251 0.520906 
70 1 0.5 0.526263 0.520895 
11 2 -2.21067e-17 0.500416 0.525909 
12 1 0.5 0.500405 0.525919 
23 1 1.0753e-17 0.50543 0.526263 
24 2 0.5 0.50542 0.526251 
35 2 -7.40248e-17 0.510575 0.526324 
36 1 0.5 0.510574 0.526331 
47 1 3.65836e-17 0.515751 0.526331 
48 2 0.5 0.51575 0.526324 
59 2 -1.40239e-16 0.520906 0.526251 
60 1 0.5 0.520895 0.526263 
71 1 -2.0814e-16 0.52592 0.52592 
72 2 0.5 0.525909 0.525909 
ITEM: TIMESTEP
6
ITEM: NUMBER OF ATOMS
72
ITEM: BOX BOUNDS pp pp pp
0 4.212
-200 200
-200 200
ITEM: ATOMS id type xs ys zs 
1 1 4.0552e-17 0.500423 0.500423 
2 2 0.5 0.500423 0.500423 
3 2 5.25056e-18 0.50009 0.505431 
4 1 0.5 0.500087 0.505428 
5 1 -4.96528e-17 0.499998 0.510584 
6 2 0.5 0.5 0.510585 
13 2 -4.57576e-17 0.505431 0.50009 
14 1 0.5 0.505428 0.500087 
15 1 -6.57583e-18 0.505387 0.505387 
16 2 0.5 0.505393 0.505393 
17 2 -3.82254e-17 0.505289 0.510573 
18 1 0.5 0.50529 0.510573 
25 1 -1.45619e-17 0.510584 0.499998 
26 2 0.5 0.510585 0.5 
27 2 3.13573e-17 0.510573 0.505289 
28 1 0.5 0.510573 0.50529 
29 1 -1.8047e-17 0.510556 0.510556 
30 2 0.5 0.510547 0.510547 
37 2 1.45733e-17 0.51574 0.5 
38 1 0.5 0.515741 0.499998 
39 1 4.90084e-17 0.515752 0.50529 
40 2 0.5 0.515752 0.505289 
41 2 -3.87668e-17 0.515778 0.510547 
42 1 0.5 0.515769 0.510556 
49 1 -3.32833e-17 0.520897 0.500087 
50 2 0.5 0.520893 0.50009 
51 2 3.38896e-17 0.520932 0.505393 
52 1 0.5 0.520938 0.505387 
53 1 8.30784e-17 0.521036 0.510573 
54 2 0.5 0.521036 0.510573 
61 2 -6.33666e-17 0.525902 0.500423 
62 1 0.5 0.525902 0.500423 
63 1 -4.20773e-17 0.526238 0.505428 
64 2 0.5 0.526235 0.505431 
65 2 8.62492e-17 0.526325 0.510585 
66 1 0.5 0.526327 0.510584 
7 2 -1.43667e-17 0.5 0.51574 
8 1 0.5 0.499998 0.515741 
9 1 1.03598e-17 0.500087 0.520897 
10 2 0.5 0.50009 0.520893 
19 1 1.72861e-17 0.50529 0.515752 
20 2 0.5 0.505289 0.515752 
21 2 6.20188e-17 0.505393 0.520932 
22 1 0.5 0.505387 0.520938 
31 2 -7.41891e-18 0.510547 0.515778 
32 1 0.5 0.510556 0.515769 
33 1 1.76136e-17 0.510573 0.521036 
34 2 0.5 0.510573 0.521036 
43 1 -6.05851e-17 0.515769 0.515769 
44 2 0.5 0.515778 0.515778 
45 2 -4.15213e-17 0.515752 0.521036 
46 1 0.5 0.515752 0.521036 
55 2 -2.8155e-17 0.521036 0.515752 
56 1 0.5 0.521036 0.515752 
57 1 4.07402e-18 0.520938 0.520938 
58 2 0.5 0.520932 0.520932 
67 1 -9.98412e-18 0.526327 0.515741 
68 2 0.5 0.526325 0.51574 
69 2 -1.72477e-18 0.526235 0.520894 
70 1 0.5 0.526238 0.520897 
11 2 -2.10272e-17 0.500423 0.525902 
12 1 0.5 0.500423 0.525902 
23 1 -9.8474e-18 0.505428 0.526238 
24 2 0.5 0.505431 0.526235 
35 2 -2.01267e-17 0.510585 0.526325 
36 1 0.5 0.510584 0.526327 
47 1 1.4651e-17 0.515741 0.526327 
48 2 0.5 0.51574 0.526325 
59 2 -9.93896e-17 0.520894 0.526235 
60 1 0.5 0.520897 0.526238 
71 1 -1.28336e-16 0.525902 0.525902 
72 2 0.5 0.525902 0.525902 
ITEM: TIMESTEP
7
ITEM: NUMBER OF ATOMS
72
ITEM: BOX BOUNDS pp pp pp
0 4.212
-200 200
-200 200
ITEM: ATOMS id type xs ys zs 
1 1 1.05683e-17 0.500436 0.500436 
2 2 0.5 0.500437 0.500437 
3 2 2.24317e-17 0.500129 0.505436 
4 1 0.5 0.500123 0.505434 
5 1 -1.2493e-17 0.500006 0.51059 
6 2 0.5 0.500011 0.510584 
13 2 -4.34173e-18 0.505436 0.500129 
14 1 0.5 0.505434 0.500123 
15 1 3.52957e-17 0.505407 0.505407 
16 2 0.5 0.505412 0.505412 
17 2 -3.0765e-17 0.505315 0.510576 
18 1 0.5 0.505309 0.510583 
25 1 4.33221e-17 0.51059 0.500006 
26 2 0.5 0.510584 0.500011 
27 2 -5.48484e-18 0.510576 0.505315 
28 1 0.5 0.510583 0.505309 
29 1 1.43481e-17 0.510562 0.510562 
30 2 0.5 0.510563 0.510563 
37 2 3.62082e-17 0.515741 0.500011 
38 1 0.5 0.515735 0.500006 
39 1 1.64654e-17 0.515742 0.505309 
40 2 0.5 0.515749 0.505315 
41 2 -4.52713e-17 0.515762 0.510563 
42 1 0.5 0.515763 0.510562 
49 1 2.18397e-18 0.520891 0.500123 
50 2 0.5 0.520889 0.500129 
51 2 7.53914e-17 0.520913 0.505412 
52 1 0.5 0.520919 0.505407 
53 1 -2.33479e-16 0.521016 0.510583 
54 2 0.5 0.52101 0.510576 
61 2 1.60178e-17 0.525888 0.500437 
62 1 0.5 0.525889 0.500436 
63 1 -4.65752e-17 0.526202 0.505434 
64 2 0.5 0.526196 0.505436 
65 2 -6.85583e-18 0.526314 0.510584 
66 1 0.5 0.526319 0.51059 
7 2 6.64757e-17 0.500011 0.515741 
8 1 0.5 0.500006 0.515735 
9 1 -1.94362e-17 0.500123 0.520891 
10 2 0.5 0.500129 0.520889 
19 1 -2.44626e-17 0.505309 0.515742 
20 2 0.5 0.505315 0.515749 
21 2 2.13522e-17 0.505412 0.520913 
22 1 0.5 0.505407 0.520919 
31 2 -2.05285e-17 0.510563 0.515762 
32 1 0.5 0.510562 0.515763 
33 1 -1.74177e-16 0.510583 0.521016 
34 2 0.5 0.510576 0.52101 
43 1 -5.37996e-17 0.515763 0.515763 
44 2 0.5 0.515762 0.515762 
45 2 1.27549e-18 0.515749 0.52101 
46 1 0.5 0.515742 0.521016 
55 2 3.78566e-18 0.52101 0.515749 
56 1 0.5 0.521016 0.515742 
57 1 3.89983e-17 0.520918 0.520918 
58 2 0.5 0.520913 0.520913 
67 1 1.09877e-17 0.526319 0.515735 
68 2 0.5 0.526314 0.515741 
69 2 -8.5227e-17 0.526196 0.520889 
70 1 0.5 0.526202 0.520891 
11 2 1.45121e-17 0.500437 0.525888 
12 1 0.5 0.500436 0.525889 
23 1 -5.02976e-17 0.505434 0.526202 
24 2 0.5 0.505436 0.526196 
35 2 -2.5232e-17 0.510584 0.526314 
36 1 0.5 0.51059 0.526319 
47 1 -1.12173e-16 0.515735 0.526319 
48 2 0.5 0.515741 0.526314 
59 2 9.73682e-17 0.520889 0.526196 
60 1 0.5 0.520891 0.526202 
71 1 -4.23662e-17 0.525889 0.525889 
72 2 0.5 0.525888 0.525888 
ITEM: TIMESTEP
8
ITEM: NUMBER OF ATOMS
72
ITEM: BOX BOUNDS pp pp pp
0 4.212
-200 200
-200 200
ITEM: ATOMS id type xs ys zs 
1 1 4.44047e-17 0.500438 0.500438 
2 2 0.5 0.500441 0.500441 
3 2 3.03786e-19 0.500139 0.505439 
4 1 0.5 0.500134 0.505439 
5 1 9.42901e-18 0.500013 0.510586 
6 2 0.5 0.500017 0.510584 
13 2 -2.11173e-18 0.505439 0.500139 
14 1 0.5 0.505439 0.500134 
15 1 6.76276e-17 0.505417 0.505417 
16 2 0.5 0.505415 0.505415 
17 2 -2.88374e-17 0.505315 0.51058 
18 1 0.5 0.50532 0.510582 
25 1 4.90369e-17 0.510586 0.500013 
26 2 0.5 0.510584 0.500017 
27 2 -8.8433e-18 0.51058 0.505315 
28 1 0.5 0.510582 0.50532 
29 1 -2.04053e-17 0.510563 0.510563 
30 2 0.5 0.510565 0.510565 
37 2 1.79262e-17 0.515741 0.500017 
38 1 0.5 0.515739 0.500013 
39 1 1.86456e-17 0.515743 0.50532 
40 2 0.5 0.515745 0.505315 
41 2 -7.54441e-17 0.51576 0.510565 
42 1 0.5 0.515762 0.510563 
49 1 2.67489e-17 0.520886 0.500134 
50 2 0.5 0.520886 0.500139 
51 2 -6.29281e-18 0.52091 0.505415 
52 1 0.5 0.520908 0.505416 
53 1 -1.98219e-16 0.521005 0.510582 
54 2 0.5 0.52101 0.51058 
61 2 4.57691e-17 0.525884 0.500441 
62 1 0.5 0.525887 0.500438 
63 1 -2.46356e-17 0.526191 0.505439 
64 2 0.5 0.526186 0.505439 
65 2 -4.32324e-17 0.526308 0.510584 
66 1 0.5 0.526312 0.510586 
7 2 3.88492e-17 0.500017 0.515741 
8 1 0.5 0.500013 0.515739 
9 1 1.29085e-17 0.500134 0.520886 
10 2 0.5 0.500139 0.520886 
19 1 4.02377e-18 0.50532 0.515743 
20 2 0.5 0.505315 0.515745 
21 2 2.37448e-18 0.505415 0.52091 
22 1 0.5 0.505416 0.520908 
31 2 1.30472e-17 0.510565 0.51576 
32 1 0.5 0.510563 0.515762 
33 1 -1.12842e-16 0.510582 0.521005 
34 2 0.5 0.51058 0.52101 
43 1 -4.03031e-17 0.515762 0.515762 
44 2 0.5 0.51576 0.51576 
45 2 1.92635e-17 0.515745 0.52101 
46 1 0.5 0.515743 0.521005 
55 2 7.41784e-18 0.52101 0.515745 
56 1 0.5 0.521005 0.515743 
57 1 3.26205e-17 0.520909 0.520909 
58 2 0.5 0.52091 0.52091 
67 1 -2.4407e-17 0.526312 0.515739 
68 2 0.5 0.526308 0.515741 
69 2 -6.0598e-17 0.526186 0.520886 
70 1 0.5 0.526191 0.520886 
11 2 2.67746e-17 0.500441 0.525884 
12 1 0.5 0.500438 0.525887 
23 1 -5.88237e-17 0.505439 0.526191 
24 2 0.5 0.505439 0.526186 
35 2 -3.27115e-17 0.510584 0.526308 
36 1 0.5 0.510586 0.526312 
47 1 -1.3955e-16 0.515739 0.526312 
48 2 0.5 0.515741 0.526308 
59 2 9.27605e-17 0.520886 0.526186 
60 1 0.5 0.520886 0.526191 
71 1 -3.0935e-17 0.525887 0.525887 
72 2 0.5 0.525884 0.525884 
ITEM: TIMESTEP
9
ITEM: NUMBER OF ATOMS
72
ITEM: BOX BOUNDS pp pp pp
0 4.212
-200 200
-200 200
ITEM: ATOMS id type xs ys zs 
1 1 7.14325e-17 0.500439 0.500439 
2 2 0.5 0.500443 0.500443 
3 2 1.97239e-19 0.500144 0.505444 
4 1 0.5 0.500138 0.505444 
5 1 2.0227e-17 0.500019 0.510581 
6 2 0.5 0.500027 0.510584 
13 2 2.61849e-17 0.505444 0.500144 
14 1 0.5 0.505444 0.500138 
15 1 1.73251e-17 0.505419 0.505419 
16 2 0.5 0.50542 0.50542 
17 2 -7.01963e-17 0.505319 0.510583 
18 1 0.5 0.50532 0.510579 
25 1 5.53056e-17 0.510581 0.500019 
26 2 0.5 0.510584 0.500027 
27 2 1.28152e-17 0.510583 0.505319 
28 1 0.5 0.510579 0.50532 
29 1 -7.89685e-17 0.510563 0.510563 
30 2 0.5 0.510564 0.510564 
37 2 2.70533e-17 0.515741 0.500027 
38 1 0.5 0.515744 0.500019 
39 1 2.1878e-17 0.515746 0.50532 
40 2 0.5 0.515742 0.505319 
41 2 -9.20331e-17 0.515761 0.510564 
42 1 0.5 0.515762 0.510563 
49 1 4.921e-17 0.520881 0.500138 
50 2 0.5 0.520881 0.500144 
51 2 -4.91181e-17 0.520905 0.50542 
52 1 0.5 0.520906 0.505419 
53 1 -8.41468e-17 0.521005 0.510579 
54 2 0.5 0.521006 0.510583 
61 2 5.69699e-17 0.525882 0.500443 
62 1 0.5 0.525886 0.500439 
63 1 -1.6635e-17 0.526187 0.505444 
64 2 0.5 0.526181 0.505444 
65 2 -7.8419e-17 0.526298 0.510584 
66 1 0.5 0.526306 0.510582 
7 2 -1.27498e-17 0.500027 0.515741 
8 1 0.5 0.500019 0.515744 
9 1 5.64703e-17 0.500138 0.520881 
10 2 0.5 0.500144 0.520881 
19 1 -6.55269e-18 0.50532 0.515746 
20 2 0.5 0.505319 0.515742 
21 2 -1.38808e-17 0.50542 0.520905 
22 1 0.5 0.505419 0.520906 
31 2 3.68247e-18 0.510564 0.515761 
32 1 0.5 0.510563 0.515762 
33 1 -5.15467e-17 0.510579 0.521005 
34 2 0.5 0.510583 0.521006 
43 1 -3.19282e-17 0.515762 0.515762 
44 2 0.5 0.515761 0.515761 
45 2 1.60357e-17 0.515742 0.521006 
46 1 0.5 0.515746 0.521005 
55 2 9.20694e-18 0.521006 0.515742 
56 1 0.5 0.521005 0.515746 
57 1 8.75662e-18 0.520906 0.520906 
58 2 0.5 0.520905 0.520905 
67 1 -1.37796e-17 0.526306 0.515744 
68 2 0.5 0.526298 0.515741 
69 2 -1.04754e-17 0.526181 0.520881 
70 1 0.5 0.526187 0.520881 
11 2 1.73108e-18 0.500443 0.525882 
12 1 0.5 0.500439 0.525886 
23 1 -8.50409e-17 0.505444 0.526187 
24 2 0.5 0.505444 0.526181 
35 2 -3.2942e-17 0.510584 0.526298 
36 1 0.5 0.510582 0.526306 
47 1 -1.17202e-16 0.515744 0.526306 
48 2 0.5 0.515741 0.526298 
59 2 2.83235e-17 0.520881 0.526181 
60 1 0.5 0.520881 0.526187 
71 1 -4.60268e-17 0.525886 0.525886 
72 2 0.5 0.525882 0.525882 
ITEM: TIMESTEP
10
ITEM: NUMBER OF ATOMS
72
ITEM: BOX BOUNDS pp pp pp
0 4.212
-200 200
-200 200
ITEM: ATOMS id type xs ys zs 
1 1 1.20681e-16 0.500442 0.500442 
2 2 0.5 0.500446 0.500446 
3 2 3.74553e-17 0.500146 0.505447 
4 1 0.5 0.500141 0.505449 
5 1 3.56522e-17 0.50003 0.510582 
6 2 0.5 0.500034 0.510582 
13 2 6.98446e-17 0.505447 0.500146 
14 1 0.5 0.505449 0.500141 
15 1 -2.22702e-17 0.505422 0.505422 
16 2 0.5 0.505422 0.505422 
17 2 -6.56727e-17 0.50532 0.510582 
18 1 0.5 0.505319 0.510582 
25 1 -1.74775e-17 0.510582 0.50003 
26 2 0.5 0.510582 0.500034 
27 2 3.73066e-17 0.510582 0.50532 
28 1 0.5 0.510582 0.505319 
29 1 -1.50482e-16 0.510564 0.510564 
30 2 0.5 0.510562 0.510562 
37 2 3.39465e-17 0.515743 0.500034 
38 1 0.5 0.515743 0.50003 
39 1 -2.27159e-17 0.515743 0.505319 
40 2 0.5 0.515743 0.50532 
41 2 -1.27152e-16 0.515763 0.510562 
42 1 0.5 0.515761 0.510564 
49 1 5.50175e-17 0.520876 0.500141 
50 2 0.5 0.520878 0.500146 
51 2 -8.17902e-17 0.520903 0.505422 
52 1 0.5 0.520903 0.505422 
53 1 1.85384e-17 0.521006 0.510582 
54 2 0.5 0.521005 0.510582 
61 2 7.26522e-17 0.525879 0.500446 
62 1 0.5 0.525883 0.500442 
63 1 1.11349e-17 0.526184 0.505449 
64 2 0.5 0.526179 0.505447 
65 2 -5.39581e-17 0.526291 0.510582 
66 1 0.5 0.526295 0.510582 
7 2 -2.11622e-17 0.500034 0.515743 
8 1 0.5 0.50003 0.515743 
9 1 5.01537e-17 0.500141 0.520876 
10 2 0.5 0.500146 0.520878 
19 1 -2.29029e-17 0.505319 0.515743 
20 2 0.5 0.50532 0.515743 
21 2 1.33678e-18 0.505422 0.520903 
22 1 0.5 0.505422 0.520903 
31 2 2.3299e-17 0.510562 0.515763 
32 1 0.5 0.510564 0.515761 
33 1 8.91373e-18 0.510582 0.521006 
34 2 0.5 0.510582 0.521005 
43 1 -4.63112e-17 0.515761 0.515761 
44 2 0.5 0.515763 0.515763 
45 2 1.07756e-17 0.515743 0.521005 
46 1 0.5 0.515743 0.521006 
55 2 8.21619e-18 0.521005 0.515743 
56 1 0.5 0.521006 0.515743 
57 1 -1.50099e-17 0.520903 0.520903 
58 2 0.5 0.520903 0.520903 
67 1 -1.07276e-17 0.526295 0.515743 
68 2 0.5 0.526291 0.515743 
69 2 4.28522e-17 0.526179 0.520878 
70 1 0.5 0.526184 0.520876 
11 2 -3.13202e-17 0.500446 0.525879 
12 1 0.5 0.500442 0.525883 
23 1 -9.08469e-17 0.505449 0.526184 
24 2 0.5 0.505447 0.526179 
35 2 -5.01524e-17 0.510582 0.526291 
36 1 0.5 0.510582 0.526295 
47 1 -1.14134e-16 0.515743 0.526295 
48 2 0.5 0.515743 0.526291 
59 2 -2.56108e-17 0.520878 0.526179 
60 1 0.5 0.520876 0.526184 
71 1 -4.92628e-17 0.525883 0.525883 
72 2 0.5 0.525879 0.525879 
ITEM: TIMESTEP
11
ITEM: NUMBER OF ATOMS
72
ITEM: BOX BOUNDS pp pp pp
0 4.212
-200 200
-200 200
ITEM: ATOMS id type xs ys zs 
1 1 5.56815e-17 0.500446 0.500446 
2 2 0.5 0.50045 0.50045 
3 2 1.14002e-16 0.500147 0.505451 
4 1 0.5 0.500141 0.505448 
5 1 -1.44058e-18 0.500039 0.510584 
6 2 0.5 0.500044 0.510584 
13 2 1.39711e-16 0.505451 0.500147 
14 1 0.5 0.505448 0.500141 
15 1 -1.37216e-16 0.505422 0.505422 
16 2 0.5 0.505422 0.505422 
17 2 -7.61909e-17 0.505321 0.510582 
18 1 0.5 0.505321 0.510583 
25 1 -7.40887e-17 0.510584 0.500039 
26 2 0.5 0.510584 0.500044 
27 2 6.08726e-17 0.510582 0.505321 
28 1 0.5 0.510583 0.505321 
29 1 -1.10929e-16 0.510562 0.510562 
30 2 0.5 0.510564 0.510564 
37 2 5.56805e-17 0.515741 0.500044 
38 1 0.5 0.515741 0.500039 
39 1 -7.3226e-17 0.515742 0.505321 
40 2 0.5 0.515743 0.505321 
41 2 -1.18851e-16 0.515761 0.510564 
42 1 0.5 0.515763 0.510562 
49 1 -9.07702e-18 0.520877 0.500141 
50 2 0.5 0.520874 0.500147 
51 2 5.07089e-17 0.520903 0.505422 
52 1 0.5 0.520903 0.505422 
53 1 4.11564e-17 0.521004 0.510583 
54 2 0.5 0.521004 0.510582 
61 2 5.61559e-17 0.525875 0.50045 
62 1 0.5 0.525879 0.500446 
63 1 -1.76978e-18 0.526184 0.505448 
64 2 0.5 0.526178 0.505451 
65 2 8.53036e-17 0.526281 0.510584 
66 1 0.5 0.526286 0.510584 
7 2 3.09396e-17 0.500044 0.515741 
8 1 0.5 0.500039 0.515741 
9 1 4.58313e-17 0.500141 0.520877 
10 2 0.5 0.500147 0.520874 
19 1 4.84421e-17 0.505321 0.515742 
20 2 0.5 0.505321 0.515743 
21 2 2.70654e-17 0.505422 0.520903 
22 1 0.5 0.505422 0.520903 
31 2 -7.15477e-19 0.510564 0.515761 
32 1 0.5 0.510562 0.515763 
33 1 6.38996e-17 0.510583 0.521004 
34 2 0.5 0.510582 0.521004 
43 1 2.29765e-17 0.515763 0.515763 
44 2 0.5 0.515761 0.515761 
45 2 1.90883e-17 0.515743 0.521004 
46 1 0.5 0.515742 0.521004 
55 2 -2.30926e-17 0.521004 0.515743 
56 1 0.5 0.521004 0.515742 
57 1 -4.04549e-18 0.520903 0.520903 
58 2 0.5 0.520902 0.520902 
67 1 -2.39546e-17 0.526286 0.515741 
68 2 0.5 0.526281 0.515741 
69 2 3.16955e-17 0.526178 0.520874 
70 1 0.5 0.526184 0.520877 
11 2 -3.3516e-17 0.50045 0.525875 
12 1 0.5 0.500446 0.525879 
23 1 -1.61187e-16 0.505448 0.526184 
24 2 0.5 0.505451 0.526178 
35 2 -6.19293e-17 0.510584 0.526281 
36 1 0.5 0.510584 0.526286 
47 1 -4.14123e-17 0.515741 0.526286 
48 2 0.5 0.515741 0.526281 
59 2 -8.06238e-18 0.520874 0.526178 
60 1 0.5 0.520877 0.526184 
71 1 -5.14771e-17 0.525879 0.525879 
72 2 0.5 0.525875 0.525875 
ITEM: TIMESTEP
12
ITEM: NUMBER OF ATOMS
72
ITEM: BOX BOUNDS pp pp pp
0 4.212
-200 200
-200 200
ITEM: ATOMS id type xs ys zs 
1 1 6.75862e-17 0.500448 0.500448 
2 2 0.5 0.500451 0.500451 
3 2 7.58064e-17 0.500146 0.50545 
4 1 0.5 0.500141 0.505449 
5 1 -3.14896e-17 0.500042 0.510586 
6 2 0.5 0.500047 0.510585 
13 2 6.1665e-17 0.50545 0.500146 
14 1 0.5 0.505449 0.500141 
15 1 -6.07946e-17 0.505422 0.505422 
16 2 0.5 0.505422 0.505422 
17 2 -6.7745e-17 0.505322 0.510582 
18 1 0.5 0.505324 0.510582 
25 1 2.29365e-18 0.510586 0.500042 
26 2 0.5 0.510585 0.500047 
27 2 -4.69891e-17 0.510582 0.505322 
28 1 0.5 0.510582 0.505324 
29 1 -4.73784e-17 0.510563 0.510563 
30 2 0.5 0.510564 0.510564 
37 2 -4.36806e-17 0.51574 0.500047 
38 1 0.5 0.51574 0.500042 
39 1 1.14705e-17 0.515743 0.505324 
40 2 0.5 0.515743 0.505322 
41 2 -1.06198e-16 0.515761 0.510564 
42 1 0.5 0.515762 0.510563 
49 1 3.11736e-18 0.520875 0.500141 
50 2 0.5 0.520875 0.500146 
51 2 6.13221e-17 0.520903 0.505422 
52 1 0.5 0.520903 0.505422 
53 1 1.20489e-17 0.521001 0.510582 
54 2 0.5 0.521003 0.510582 
61 2 -1.28905e-20 0.525874 0.500451 
62 1 0.5 0.525877 0.500448 
63 1 3.58996e-17 0.526184 0.505449 
64 2 0.5 0.526179 0.50545 
65 2 1.22617e-16 0.526278 0.510585 
66 1 0.5 0.526283 0.510586 
7 2 3.12626e-17 0.500047 0.51574 
8 1 0.5 0.500042 0.51574 
9 1 1.90037e-17 0.500141 0.520875 
10 2 0.5 0.500146 0.520875 
19 1 3.76602e-17 0.505324 0.515743 
20 2 0.5 0.505322 0.515743 
21 2 2.89411e-17 0.505422 0.520903 