ITEM: TIMESTEP
0
ITEM: NUMBER OF ATOMS
8
ITEM: BOX BOUNDS xy xz yz pp pp pp
0 4.1 7.35908e-09
0 4.1 7.35908e-09
0 4.1 7.35908e-09
ITEM: ATOMS id type xs ys zs 
1 1 0 0 0 
2 1 0.5 0.5 0 
3 1 0.5 2.06795e-25 0.5 
4 1 8.27181e-25 0.5 0.5 
5 2 0.5 0 0 
6 2 2.06795e-25 0.5 0 
7 2 6.20385e-25 2.06795e-25 0.5 
8 2 0.5 0.5 0.5 
ITEM: TIMESTEP
1
ITEM: NUMBER OF ATOMS
8
ITEM: BOX BOUNDS xy xz yz pp pp pp
-0.000205 4.10021 7.35349e-09
-0.000205 4.10021 7.35349e-09
-0.000205 4.1002 7.35349e-09
ITEM: ATOMS id type xs ys zs 
1 1 1.32207e-20 -1.18547e-29 6.61033e-21 
2 1 0.5 0.5 1.32207e-20 
3 1 0.5 1.85462e-20 0.5 
4 1 2.76245e-20 0.5 0.5 
5 2 0.5 6.61033e-21 6.61033e-21 
6 2 2.5068e-20 0.5 6.61033e-21 
7 2 1.57777e-20 1.85462e-20 0.5 
8 2 0.5 0.5 0.5 
ITEM: TIMESTEP
2
ITEM: NUMBER OF ATOMS
8
ITEM: BOX BOUNDS xy xz yz pp pp pp
-0.00041 4.10041 7.34788e-09
-0.00041 4.10041 7.34788e-09
-0.00041 4.10041 7.34788e-09
ITEM: ATOMS id type xs ys zs 
1 1 3.9658e-20 0 0 
2 1 0.5 0.5 0 
3 1 0.5 4.54689e-20 0.5 
4 1 7.046e-20 0.5 0.5 
5 2 0.5 2.64387e-20 0 
6 2 3.49054e-20 0.5 0 
7 2 3.55548e-20 4.54689e-20 0.5 
8 2 0.5 0.5 0.5 
ITEM: TIMESTEP
3
ITEM: NUMBER OF ATOMS
8
ITEM: BOX BOUNDS xy xz yz pp pp pp
-0.000615 4.10062 7.34226e-09
-0.000615 4.10062 7.34226e-09
-0.000615 4.10062 7.34226e-09
ITEM: ATOMS id type xs ys zs 
1 1 7.93081e-20 0 0 
2 1 0.5 0.5 -2.6436e-20 
3 1 0.5 8.34868e-20 0.5 
4 1 1.01952e-19 0.5 0.5 
5 2 0.5 2.6436e-20 -2.6436e-20 
6 2 6.07549e-20 0.5 -2.6436e-20 
7 2 6.76337e-20 8.34868e-20 0.5 
8 2 0.5 0.5 0.5 
ITEM: TIMESTEP
4
ITEM: NUMBER OF ATOMS
8
ITEM: BOX BOUNDS xy xz yz pp pp pp
-0.00082 4.10082 7.33661e-09
-0.00082 4.10082 7.33661e-09
-0.00082 4.10082 7.33661e-09
ITEM: ATOMS id type xs ys zs 
1 1 1.05734e-19 2.64334e-20 -2.64334e-20 
2 1 0.5 0.5 -2.64334e-20 
3 1 0.5 1.17309e-19 0.5 
4 1 1.60229e-19 0.5 0.5 
5 2 0.5 2.64334e-20 -5.28668e-20 
6 2 7.22787e-20 0.5 -5.28668e-20 
7 2 8.79504e-20 1.17309e-19 0.5 
8 2 0.5 0.5 0.5 
ITEM: TIMESTEP
5
ITEM: NUMBER OF ATOMS
8
ITEM: BOX BOUNDS xy xz yz pp pp pp
-0.001025 4.10103 7.33095e-09
-0.001025 4.10103 7.33095e-09
-0.001025 4.10103 7.33095e-09
ITEM: ATOMS id type xs ys zs 
1 1 1.05723e-19 5.28615e-20 -5.28615e-20 
2 1 0.5 0.5 -5.28615e-20 
3 1 0.5 9.29818e-20 0.5 
4 1 1.60394e-19 0.5 0.5 
5 2 0.5 5.28615e-20 -5.28615e-20 
6 2 9.39762e-20 0.5 -5.28615e-20 
7 2 6.6418e-20 9.29818e-20 0.5 
8 2 0.5 0.5 0.5 
ITEM: TIMESTEP
6
ITEM: NUMBER OF ATOMS
8
ITEM: BOX BOUNDS xy xz yz pp pp pp
-0.00123 4.10123 7.32526e-09
-0.00123 4.10123 7.32526e-09
-0.00123 4.10123 7.32526e-09
ITEM: ATOMS id type xs ys zs 
1 1 1.05712e-19 5.28562e-20 -5.28562e-20 
2 1 0.5 0.5 -5.28562e-20 
3 1 0.5 8.7808e-20 0.5 
4 1 1.3779e-19 0.5 0.5 
5 2 0.5 5.28562e-20 -5.28562e-20 
6 2 9.09067e-20 0.5 -5.28562e-20 
7 2 4.6883e-20 8.7808e-20 0.5 
8 2 0.5 0.5 0.5 
ITEM: TIMESTEP
7
ITEM: NUMBER OF ATOMS
8
ITEM: BOX BOUNDS xy xz yz pp pp pp
-0.001435 4.10144 7.31956e-09
-0.001435 4.10144 7.31956e-09
-0.001435 4.10144 7.31956e-09
ITEM: ATOMS id type xs ys zs 
1 1 1.05702e-19 5.28509e-20 -5.28509e-20 
2 1 0.5 0.5 -5.28509e-20 
3 1 0.5 7.44176e-20 0.5 
4 1 1.81584e-19 0.5 0.5 
5 2 0.5 5.28509e-20 -5.28509e-20 
6 2 1.13151e-19 0.5 -5.28509e-20 
7 2 6.84336e-20 7.44176e-20 0.5 
8 2 0.5 0.5 0.5 
ITEM: TIMESTEP
8
ITEM: NUMBER OF ATOMS
8
ITEM: BOX BOUNDS xy xz yz pp pp pp
-0.00164 4.10164 7.31383e-09
-0.00164 4.10164 7.31383e-09
-0.00164 4.10164 7.31383e-09
ITEM: ATOMS id type xs ys zs 
1 1 1.05691e-19 5.28456e-20 -5.28456e-20 
2 1 0.5 0.5 -5.28456e-20 
3 1 0.5 5.95255e-20 0.5 
4 1 1.62822e-19 0.5 0.5 
5 2 0.5 5.28456e-20 -5.28456e-20 
6 2 1.5197e-19 0.5 -5.28456e-20 
7 2 1.16544e-19 5.95255e-20 0.5 
8 2 0.5 0.5 0.5 
ITEM: TIMESTEP
9
ITEM: NUMBER OF ATOMS
8
ITEM: BOX BOUNDS xy xz yz pp pp pp
-0.001845 4.10185 7.30809e-09
-0.001845 4.10185 7.30809e-09
-0.001845 4.10185 7.30809e-09
ITEM: ATOMS id type xs ys zs 
1 1 1.05681e-19 5.28404e-20 -5.28404e-20 
2 1 0.5 0.5 -5.28404e-20 
3 1 0.5 4.39549e-20 0.5 
4 1 2.29825e-19 0.5 0.5 
5 2 0.5 5.28404e-20 -5.28404e-20 
6 2 1.32025e-19 0.5 -5.28404e-20 
7 2 9.78001e-20 4.39549e-20 0.5 
8 2 0.5 0.5 0.5 
ITEM: TIMESTEP
10
ITEM: NUMBER OF ATOMS
8
ITEM: BOX BOUNDS xy xz yz pp pp pp
-0.00205 4.10205 7.30232e-09
-0.00205 4.10205 7.30232e-09
-0.00205 4.10205 7.30232e-09
ITEM: ATOMS id type xs ys zs 
1 1 1.0567e-19 1.0567e-19 -1.0567e-19 
2 1 0.5 0.5 -1.0567e-19 
3 1 0.5 9.27548e-20 0.5 
4 1 2.51568e-19 0.5 0.5 
5 2 0.5 1.0567e-19 -1.0567e-19 
6 2 1.25963e-19 0.5 -1.0567e-19 
7 2 1.25605e-19 9.27548e-20 0.5 
8 2 0.5 0.5 0.5 
ITEM: TIMESTEP
11
ITEM: NUMBER OF ATOMS
8
ITEM: BOX BOUNDS xy xz yz pp pp pp
-0.002255 4.10226 7.29653e-09
-0.002255 4.10226 7.29653e-09
-0.002255 4.10226 7.29653e-09
ITEM: ATOMS id type xs ys zs 
1 1 1.0566e-19 1.0566e-19 -1.0566e-19 
2 1 0.5 0.5 -1.0566e-19 
3 1 0.5 1.34454e-19 0.5 
4 1 2.77106e-19 0.5 0.5 
5 2 0.5 1.0566e-19 -1.0566e-19 
6 2 1.30645e-19 0.5 -1.0566e-19 
7 2 1.46461e-19 1.34454e-19 0.5 
8 2 0.5 0.5 0.5 
ITEM: TIMESTEP
12
ITEM: NUMBER OF ATOMS
8
ITEM: BOX BOUNDS xy xz yz pp pp pp
-0.00246 4.10246 7.29073e-09
-0.00246 4.10246 7.29073e-09
-0.00246 4.10246 7.29073e-09
ITEM: ATOMS id type xs ys zs 
1 1 1.05649e-19 1.05649e-19 -1.05649e-19 
2 1 0.5 0.5 -1.05649e-19 
3 1 0.5 1.77102e-19 0.5 
4 1 2.66961e-19 0.5 0.5 
5 2 0.5 1.05649e-19 -1.05649e-19 
6 2 1.73649e-19 0.5 -1.05649e-19 
7 2 1.98961e-19 1.77102e-19 0.5 
8 2 0.5 0.5 0.5 
ITEM: TIMESTEP
13
ITEM: NUMBER OF ATOMS
8
ITEM: BOX BOUNDS xy xz yz pp pp pp
-0.002665 4.10267 7.2849e-09
-0.002665 4.10267 7.2849e-09
-0.002665 4.10267 7.2849e-09
ITEM: ATOMS id type xs ys zs 
1 1 1.05638e-19 1.05638e-19 -1.05638e-19 
2 1 0.5 0.5 -1.05638e-19 
3 1 0.5 1.79156e-19 0.5 
4 1 2.83219e-19 0.5 0.5 
5 2 0.5 1.05638e-19 -1.05638e-19 
6 2 1.65225e-19 0.5 -1.05638e-19 
7 2 2.23632e-19 1.79156e-19 0.5 
8 2 0.5 0.5 0.5 
ITEM: TIMESTEP
14
ITEM: NUMBER OF ATOMS
8
ITEM: BOX BOUNDS xy xz yz pp pp pp
-0.00287 4.10287 7.27905e-09
-0.00287 4.10287 7.27905e-09
-0.00287 4.10287 7.27905e-09
ITEM: ATOMS id type xs ys zs 
1 1 1.05628e-19 1.05628e-19 -1.05628e-19 
2 1 0.5 0.5 -1.05628e-19 
3 1 0.5 1.2907e-19 0.5 
4 1 2.54862e-19 0.5 0.5 
5 2 0.5 1.05628e-19 -1.05628e-19 
6 2 2.1522e-19 0.5 -1.05628e-19 
7 2 2.50898e-19 1.2907e-19 0.5 
8 2 0.5 0.5 0.5 
ITEM: TIMESTEP
15
ITEM: NUMBER OF ATOMS
8
ITEM: BOX BOUNDS xy xz yz pp pp pp
-0.003075 4.10308 7.27318e-09
-0.003075 4.10308 7.27318e-09
-0.003075 4.10308 7.27318e-09
ITEM: ATOMS id type xs ys zs 
1 1 1.05617e-19 1.05617e-19 -1.05617e-19 
2 1 0.5 0.5 -1.05617e-19 
3 1 0.5 8.21192e-20 0.5 
4 1 2.55395e-19 0.5 0.5 
5 2 0.5 1.05617e-19 -1.05617e-19 
6 2 2.53229e-19 0.5 -1.05617e-19 
7 2 2.13401e-19 8.21192e-20 0.5 
8 2 0.5 0.5 0.5 
ITEM: TIMESTEP
16
ITEM: NUMBER OF ATOMS
8
ITEM: BOX BOUNDS xy xz yz pp pp pp
-0.00328 4.10328 7.26729e-09
-0.00328 4.10328 7.26729e-09
-0.00328 4.10328 7.26729e-09
ITEM: ATOMS id type xs ys zs 
1 1 1.05607e-19 1.05607e-19 -1.05607e-19 
2 1 0.5 0.5 -1.05607e-19 
3 1 0.5 9.87706e-20 0.5 
4 1 2.75317e-19 0.5 0.5 
5 2 0.5 1.05607e-19 -1.05607e-19 
6 2 2.14862e-19 0.5 -1.05607e-19 
7 2 1.66061e-19 9.87706e-20 0.5 
8 2 0.5 0.5 0.5 
ITEM: TIMESTEP
17
ITEM: NUMBER OF ATOMS
8
ITEM: BOX BOUNDS xy xz yz pp pp pp
-0.003485 4.10349 7.26138e-09
-0.003485 4.10349 7.26138e-09
-0.003485 4.10349 7.26138e-09
ITEM: ATOMS id type xs ys zs 
1 1 1.05596e-19 1.05596e-19 -1.05596e-19 
2 1 0.5 0.5 -1.05596e-19 
3 1 0.5 5.16332e-20 0.5 
4 1 2.28139e-19 0.5 0.5 
5 2 0.5 1.05596e-19 -1.05596e-19 
6 2 2.22068e-19 0.5 -1.05596e-19 
7 2 2.17263e-19 5.16332e-20 0.5 
8 2 0.5 0.5 0.5 
ITEM: TIMESTEP
18
ITEM: NUMBER OF ATOMS
8
ITEM: BOX BOUNDS xy xz yz pp pp pp
-0.00369 4.10369 7.25545e-09
-0.00369 4.10369 7.25545e-09
-0.00369 4.10369 7.25545e-09
ITEM: ATOMS id type xs ys zs 
1 1 -3.22126e-37 1.05586e-19 -1.05586e-19 
2 1 0.5 0.5 -1.05586e-19 
3 1 0.5 8.95486e-20 0.5 
4 1 2.73494e-19 0.5 0.5 
5 2 0.5 1.05586e-19 -1.05586e-19 
6 2 3.12494e-19 0.5 -1.05586e-19 
7 2 2.77757e-19 8.95486e-20 0.5 
8 2 0.5 0.5 0.5 
ITEM: TIMESTEP
19
ITEM: NUMBER OF ATOMS
8
ITEM: BOX BOUNDS xy xz yz pp pp pp
-0.003895 4.1039 7.2495e-09
-0.003895 4.1039 7.2495e-09
-0.003895 4.1039 7.2495e-09
ITEM: ATOMS id type xs ys zs 
1 1 -1.05575e-19 1.05575e-19 -1.05575e-19 
2 1 0.5 0.5 -1.05575e-19 
3 1 0.5 6.25431e-20 0.5 
4 1 2.5625e-19 0.5 0.5 
5 2 0.5 1.05575e-19 -1.05575e-19 
6 2 3.30836e-19 0.5 -1.05575e-19 
7 2 2.4214e-19 6.25431e-20 0.5 
8 2 0.5 0.5 0.5 
ITEM: TIMESTEP
20
ITEM: NUMBER OF ATOMS
8
ITEM: BOX BOUNDS xy xz yz pp pp pp
-0.0041 4.1041 7.24352e-09
-0.0041 4.1041 7.24352e-09
-0.0041 4.1041 7.24352e-09
ITEM: ATOMS id type xs ys zs 
1 1 -2.11129e-19 2.11129e-19 -2.11129e-19 
2 1 0.5 0.5 -2.11129e-19 
3 1 0.5 4.39275e-20 0.5 
4 1 2.96095e-19 0.5 0.5 
5 2 0.5 2.11129e-19 -2.11129e-19 
6 2 3.68165e-19 0.5 -2.11129e-19 
7 2 1.39059e-19 4.39275e-20 0.5 
8 2 0.5 0.5 0.5 
ITEM: TIMESTEP
21
ITEM: NUMBER OF ATOMS
8
ITEM: BOX BOUNDS xy xz yz pp pp pp
-0.004305 4.10431 7.23752e-09
-0.004305 4.10431 7.23752e-09
-0.004305 4.10431 7.23752e-09
ITEM: ATOMS id type xs ys zs 
1 1 -2.11108e-19 2.11108e-19 -2.11108e-19 
2 1 0.5 0.5 -2.11108e-19 
3 1 0.5 9.14524e-20 0.5 
4 1 2.78643e-19 0.5 0.5 
5 2 0.5 2.11108e-19 -2.11108e-19 
6 2 4.53744e-19 0.5 -2.11108e-19 
7 2 3.6007e-20 9.14524e-20 0.5 
8 2 0.5 0.5 0.5 
ITEM: TIMESTEP
22
ITEM: NUMBER OF ATOMS
8
ITEM: BOX BOUNDS xy xz yz pp pp pp
-0.00451 4.10451 7.2315e-09
-0.00451 4.10451 7.2315e-09
-0.00451 4.10451 7.2315e-09
ITEM: ATOMS id type xs ys zs 
1 1 -2.11087e-19 2.11087e-19 -2.11087e-19 
2 1 0.5 0.5 -2.11087e-19 
3 1 0.5 1.74583e-20 0.5 
4 1 3.68768e-19 0.5 0.5 
5 2 0.5 2.11087e-19 -2.11087e-19 
6 2 5.51005e-19 0.5 -2.11087e-19 
7 2 2.885e-20 1.74583e-20 0.5 
8 2 0.5 0.5 0.5 
ITEM: TIMESTEP
23
ITEM: NUMBER OF ATOMS
8
ITEM: BOX BOUNDS xy xz yz pp pp pp
-0.004715 4.10472 7.22546e-09
-0.004715 4.10472 7.22546e-09
-0.004715 4.10472 7.22546e-09
ITEM: ATOMS id type xs ys zs 
1 1 -2.11066e-19 2.11066e-19 -2.11066e-19 
2 1 0.5 0.5 -2.11066e-19 
3 1 0.5 -6.00624e-20 0.5 
4 1 4.12234e-19 0.5 0.5 
5 2 0.5 2.11066e-19 -2.11066e-19 
6 2 6.38546e-19 0.5 -2.11066e-19 
7 2 -1.52461e-20 -6.00624e-20 0.5 
8 2 0.5 0.5 0.5 
ITEM: TIMESTEP
24
ITEM: NUMBER OF ATOMS
8
ITEM: BOX BOUNDS xy xz yz pp pp pp
-0.00492 4.10492 7.2194e-09
-0.00492 4.10492 7.2194e-09
-0.00492 4.10492 7.2194e-09
ITEM: ATOMS id type xs ys zs 
1 1 -2.11045e-19 2.11045e-19 -2.11045e-19 
2 1 0.5 0.5 -2.11045e-19 
3 1 0.5 4.28762e-20 0.5 
4 1 4.07514e-19 0.5 0.5 
5 2 0.5 2.11045e-19 -2.11045e-19 
6 2 5.71581e-19 0.5 -2.11045e-19 
7 2 4.6978e-20 4.28762e-20 0.5 
8 2 0.5 0.5 0.5 
ITEM: TIMESTEP
25
ITEM: NUMBER OF ATOMS
8
ITEM: BOX BOUNDS xy xz yz pp pp pp
-0.005125 4.10513 7.21331e-09
-0.005125 4.10513 7.21331e-09
-0.005125 4.10513 7.21331e-09
ITEM: ATOMS id type xs ys zs 
1 1 -2.11024e-19 2.11024e-19 -2.11024e-19 
2 1 0.5 0.5 -2.11024e-19 
3 1 0.5 1.1951e-19 0.5 
4 1 5.08662e-19 0.5 0.5 
5 2 0.5 2.11024e-19 -2.11024e-19 
6 2 5.62344e-19 0.5 -2.11024e-19 
7 2 -5.36826e-20 1.1951e-19 0.5 
8 2 0.5 0.5 0.5 
ITEM: TIMESTEP
26
ITEM: NUMBER OF ATOMS
8
ITEM: BOX BOUNDS xy xz yz pp pp pp
-0.00533 4.10533 7.2072e-09
-0.00533 4.10533 7.2072e-09
-0.00533 4.10533 7.2072e-09
ITEM: ATOMS id type xs ys zs 
1 1 -2.11003e-19 2.11003e-19 -2.11003e-19 
2 1 0.5 0.5 -2.11003e-19 
3 1 0.5 1.40854e-19 0.5 
4 1 4.83382e-19 0.5 0.5 
5 2 0.5 2.11003e-19 -2.11003e-19 
6 2 5.02231e-19 0.5 -2.11003e-19 
7 2 -1.885e-20 1.40854e-19 0.5 
8 2 0.5 0.5 0.5 
ITEM: TIMESTEP
27
ITEM: NUMBER OF ATOMS
8
ITEM: BOX BOUNDS xy xz yz pp pp pp
-0.005535 4.10554 7.20107e-09
-0.005535 4.10554 7.20107e-09
-0.005535 4.10554 7.20107e-09
ITEM: ATOMS id type xs ys zs 
1 1 -2.10982e-19 2.10982e-19 -2.10982e-19 
2 1 0.5 0.5 -2.10982e-19 
3 1 0.5 2.42377e-19 0.5 
4 1 4.71261e-19 0.5 0.5 
5 2 0.5 2.10982e-19 -2.10982e-19 
6 2 4.09221e-19 0.5 -2.10982e-19 
7 2 6.20394e-20 2.42377e-19 0.5 
8 2 0.5 0.5 0.5 
ITEM: TIMESTEP
28
ITEM: NUMBER OF ATOMS
8
ITEM: BOX BOUNDS xy xz yz pp pp pp
-0.00574 4.10574 7.19491e-09
-0.00574 4.10574 7.19491e-09
-0.00574 4.10574 7.19491e-09
ITEM: ATOMS id type xs ys zs 
1 1 -2.10961e-19 2.10961e-19 -2.10961e-19 
2 1 0.5 0.5 -2.10961e-19 
3 1 0.5 2.50315e-19 0.5 
4 1 5.24631e-19 0.5 0.5 
5 2 0.5 2.10961e-19 -2.10961e-19 
6 2 5.0582e-19 0.5 -2.10961e-19 
7 2 1.88107e-20 2.50315e-19 0.5 
8 2 0.5 0.5 0.5 
ITEM: TIMESTEP
29
ITEM: NUMBER OF ATOMS
8
ITEM: BOX BOUNDS xy xz yz pp pp pp
-0.005945 4.10595 7.18874e-09
-0.005945 4.10595 7.18874e-09
-0.005945 4.10595 7.18874e-09
ITEM: ATOMS id type xs ys zs 
1 1 -2.1094e-19 2.1094e-19 -2.1094e-19 
2 1 0.5 0.5 -2.1094e-19 
3 1 0.5 3.03374e-19 0.5 
4 1 4.42523e-19 0.5 0.5 
5 2 0.5 2.1094e-19 -2.1094e-19 
6 2 5.654e-19 0.5 -2.1094e-19 
7 2 8.80624e-20 3.03374e-19 0.5 
8 2 0.5 0.5 0.5 
ITEM: TIMESTEP
30
ITEM: NUMBER OF ATOMS
8
ITEM: BOX BOUNDS xy xz yz pp pp pp
-0.00615 4.10615 7.18254e-09
-0.00615 4.10615 7.18254e-09
-0.00615 4.10615 7.18254e-09
ITEM: ATOMS id type xs ys zs 
1 1 -2.10919e-19 2.10919e-19 -2.10919e-19 
2 1 0.5 0.5 -2.10919e-19 
3 1 0.5 3.45694e-19 0.5 
4 1 3.9794e-19 0.5 0.5 
5 2 0.5 2.10919e-19 -2.10919e-19 
6 2 5.90057e-19 0.5 -2.10919e-19 
7 2 1.88009e-20 3.45694e-19 0.5 
8 2 0.5 0.5 0.5 
ITEM: TIMESTEP
31
ITEM: NUMBER OF ATOMS
8
ITEM: BOX BOUNDS xy xz yz pp pp pp
-0.006355 4.10636 7.17631e-09
-0.006355 4.10636 7.17631e-09
-0.006355 4.10636 7.17631e-09
ITEM: ATOMS id type xs ys zs 
1 1 -2.10898e-19 2.10898e-19 -2.10898e-19 
2 1 0.5 0.5 -2.10898e-19 
3 1 0.5 3.16744e-19 0.5 
4 1 3.97969e-19 0.5 0.5 
5 2 0.5 2.10898e-19 -2.10898e-19 
6 2 6.70255e-19 0.5 -2.10898e-19 
7 2 -6.13887e-20 3.16744e-19 0.5 
8 2 0.5 0.5 0.5 
ITEM: TIMESTEP
32
ITEM: NUMBER OF ATOMS
8
ITEM: BOX BOUNDS xy xz yz pp pp pp
-0.00656 4.10656 7.17006e-09
-0.00656 4.10656 7.17006e-09
-0.00656 4.10656 7.17006e-09
ITEM: ATOMS id type xs ys zs 
1 1 -2.10877e-19 2.10877e-19 -2.10877e-19 
2 1 0.5 0.5 -2.10877e-19 
3 1 0.5 3.65375e-19 0.5 
4 1 3.2149e-19 0.5 0.5 
5 2 0.5 2.10877e-19 -2.10877e-19 
6 2 5.7722e-19 0.5 -2.10877e-19 
7 2 -4.48538e-20 3.65375e-19 0.5 
8 2 0.5 0.5 0.5 
ITEM: TIMESTEP
33
ITEM: NUMBER OF ATOMS
8
ITEM: BOX BOUNDS xy xz yz pp pp pp
-0.006765 4.10677 7.16379e-09
-0.006765 4.10677 7.16379e-09
-0.006765 4.10677 7.16379e-09
ITEM: ATOMS id type xs ys zs 
1 1 -2.10856e-19 2.10856e-19 -2.10856e-19 
2 1 0.5 0.5 -2.10856e-19 
3 1 0.5 3.09431e-19 0.5 
4 1 3.58904e-19 0.5 0.5 
5 2 0.5 2.10856e-19 -2.10856e-19 
6 2 4.81636e-19 0.5 -2.10856e-19 
7 2 -1.22732e-19 3.09431e-19 0.5 
8 2 0.5 0.5 0.5 
ITEM: TIMESTEP
34
ITEM: NUMBER OF ATOMS
8
ITEM: BOX BOUNDS xy xz yz pp pp pp
-0.00697 4.10697 7.1575e-09
-0.00697 4.10697 7.1575e-09
-0.00697 4.10697 7.1575e-09
ITEM: ATOMS id type xs ys zs 
1 1 -2.10835e-19 2.10835e-19 -2.10835e-19 
2 1 0.5 0.5 -2.10835e-19 
3 1 0.5 4.02939e-19 0.5 
4 1 3.11754e-19 0.5 0.5 
5 2 0.5 2.10835e-19 -2.10835e-19 
6 2 4.98927e-19 0.5 -2.10835e-19 
7 2 -1.87173e-19 4.02939e-19 0.5 
8 2 0.5 0.5 0.5 
ITEM: TIMESTEP
35
ITEM: NUMBER OF ATOMS
8
ITEM: BOX BOUNDS xy xz yz pp pp pp
-0.007175 4.10718 7.15118e-09
-0.007175 4.10718 7.15118e-09
-0.007175 4.10718 7.15118e-09
ITEM: ATOMS id type xs ys zs 
1 1 -2.10814e-19 2.10814e-19 -2.10814e-19 
2 1 0.5 0.5 -2.10814e-19 
3 1 0.5 4.04935e-19 0.5 
4 1 2.65626e-19 0.5 0.5 
5 2 0.5 2.10814e-19 -2.10814e-19 
6 2 4.33829e-19 0.5 -2.10814e-19 
7 2 -1.68203e-19 4.04935e-19 0.5 
8 2 0.5 0.5 0.5 
ITEM: TIMESTEP
36
ITEM: NUMBER OF ATOMS
8
ITEM: BOX BOUNDS xy xz yz pp pp pp
-0.00738 4.10738 7.14483e-09
-0.00738 4.10738 7.14483e-09
-0.00738 4.10738 7.14483e-09
ITEM: ATOMS id type xs ys zs 
1 1 -2.10793e-19 2.10793e-19 -2.10793e-19 
2 1 0.5 0.5 -2.10793e-19 
3 1 0.5 3.65309e-19 0.5 
4 1 3.18287e-19 0.5 0.5 
5 2 0.5 2.10793e-19 -2.10793e-19 
6 2 5.18848e-19 0.5 -2.10793e-19 
7 2 -2.00562e-19 3.65309e-19 0.5 
8 2 0.5 0.5 0.5 
ITEM: TIMESTEP
37
ITEM: NUMBER OF ATOMS
8
ITEM: BOX BOUNDS xy xz yz pp pp pp
-0.007585 4.10759 7.13846e-09
-0.007585 4.10759 7.13846e-09
-0.007585 4.10759 7.13846e-09
ITEM: ATOMS id type xs ys zs 
1 1 -2.10772e-19 2.10772e-19 -2.10772e-19 
2 1 0.5 0.5 -2.10772e-19 
3 1 0.5 2.86332e-19 0.5 
4 1 4.1038e-19 0.5 0.5 
5 2 0.5 2.10772e-19 -2.10772e-19 
6 2 4.68096e-19 0.5 -2.10772e-19 
7 2 -2.68488e-19 2.86332e-19 0.5 
8 2 0.5 0.5 0.5 
ITEM: TIMESTEP
38
ITEM: NUMBER OF ATOMS
8
ITEM: BOX BOUNDS xy xz yz pp pp pp
-0.00779 4.10779 7.13207e-09
-0.00779 4.10779 7.13207e-09
-0.00779 4.10779 7.13207e-09
ITEM: ATOMS id type xs ys zs 
1 1 -2.10751e-19 2.10751e-19 -2.10751e-19 
2 1 0.5 0.5 -2.10751e-19 
3 1 0.5 2.86523e-19 0.5 
4 1 5.14971e-19 0.5 0.5 
5 2 0.5 2.10751e-19 -2.10751e-19 
6 2 3.70866e-19 0.5 -2.10751e-19 
7 2 -2.77397e-19 2.86523e-19 0.5 
8 2 0.5 0.5 0.5 
ITEM: TIMESTEP
39
ITEM: NUMBER OF ATOMS
8
ITEM: BOX BOUNDS xy xz yz pp pp pp
-0.007995 4.108 7.12565e-09
-0.007995 4.108 7.12565e-09
-0.007995 4.108 7.12565e-09
ITEM: ATOMS id type xs ys zs 
1 1 -4.2146e-19 4.2146e-19 -4.2146e-19 
2 1 0.5 0.5 -4.2146e-19 
3 1 0.5 3.25739e-19 0.5 
4 1 5.20459e-19 0.5 0.5 
5 2 0.5 4.2146e-19 -4.2146e-19 
6 2 5.67422e-19 0.5 -4.2146e-19 
7 2 -4.68423e-19 3.25739e-19 0.5 
8 2 0.5 0.5 0.5 
ITEM: TIMESTEP
40
ITEM: NUMBER OF ATOMS
8
ITEM: BOX BOUNDS xy xz yz pp pp pp
-0.0082 4.1082 7.11921e-09
-0.0082 4.1082 7.11921e-09
-0.0082 4.1082 7.11921e-09
ITEM: ATOMS id type xs ys zs 
1 1 -4.21418e-19 4.21418e-19 -4.21418e-19 
2 1 0.5 0.5 -4.21418e-19 
3 1 0.5 3.94296e-19 0.5 
4 1 3.18152e-19 0.5 0.5 
5 2 0.5 4.21418e-19 -4.21418e-19 
6 2 6.26677e-19 0.5 -4.21418e-19 
7 2 -3.08525e-19 3.94296e-19 0.5 
8 2 0.5 0.5 0.5 
ITEM: TIMESTEP
41
ITEM: NUMBER OF ATOMS
8
ITEM: BOX BOUNDS xy xz yz pp pp pp
-0.008405 4.10841 7.11274e-09
-0.008405 4.10841 7.11274e-09
-0.008405 4.10841 7.11274e-09
ITEM: ATOMS id type xs ys zs 
1 1 -4.21376e-19 4.21376e-19 -4.21376e-19 
2 1 0.5 0.5 -4.21376e-19 
3 1 0.5 5.08728e-19 0.5 
4 1 1.45226e-19 0.5 0.5 
5 2 0.5 4.21376e-19 -4.21376e-19 
6 2 7.57301e-19 0.5 -4.21376e-19 
7 2 -1.907e-19 5.08728e-19 0.5 
8 2 0.5 0.5 0.5 
ITEM: TIMESTEP
42
ITEM: NUMBER OF ATOMS
8
ITEM: BOX BOUNDS xy xz yz pp pp pp
-0.00861 4.10861 7.10625e-09
-0.00861 4.10861 7.10625e-09
-0.00861 4.10861 7.10625e-09
ITEM: ATOMS id type xs ys zs 
1 1 -4.21334e-19 4.21334e-19 -4.21334e-19 
2 1 0.5 0.5 -4.21334e-19 
3 1 0.5 4.05422e-19 0.5 
4 1 3.50926e-20 0.5 0.5 
5 2 0.5 4.21334e-19 -4.21334e-19 
6 2 7.29857e-19 0.5 -4.21334e-19 
7 2 -2.73431e-19 4.05422e-19 0.5 
8 2 0.5 0.5 0.5 
ITEM: TIMESTEP
43
ITEM: NUMBER OF ATOMS
8
ITEM: BOX BOUNDS xy xz yz pp pp pp
-0.008815 4.10882 7.09973e-09
-0.008815 4.10882 7.09973e-09
-0.008815 4.10882 7.09973e-09
ITEM: ATOMS id type xs ys zs 
1 1 -4.21292e-19 4.21292e-19 -4.21292e-19 
2 1 0.5 0.5 -4.21292e-19 
3 1 0.5 2.22791e-19 0.5 
4 1 6.49399e-21 0.5 0.5 
5 2 0.5 4.21292e-19 -4.21292e-19 
6 2 8.39845e-19 0.5 -4.21292e-19 
7 2 -4.1206e-19 2.22791e-19 0.5 
8 2 0.5 0.5 0.5 
ITEM: TIMESTEP
44
ITEM: NUMBER OF ATOMS
8
ITEM: BOX BOUNDS xy xz yz pp pp pp
-0.00902 4.10902 7.09318e-09
-0.00902 4.10902 7.09318e-09
-0.00902 4.10902 7.09318e-09
ITEM: ATOMS id type xs ys zs 
1 1 -4.2125e-19 4.2125e-19 -4.2125e-19 
2 1 0.5 0.5 -4.2125e-19 
3 1 0.5 3.09687e-20 0.5 
4 1 -6.97516e-20 0.5 0.5 
5 2 0.5 4.2125e-19 -4.2125e-19 
6 2 9.1526e-19 0.5 -4.2125e-19 
7 2 -5.63762e-19 3.09687e-20 0.5 
8 2 0.5 0.5 0.5 
ITEM: TIMESTEP
45
ITEM: NUMBER OF ATOMS
8
ITEM: BOX BOUNDS xy xz yz pp pp pp
-0.009225 4.10923 7.08661e-09
-0.009225 4.10923 7.08661e-09
-0.009225 4.10923 7.08661e-09
ITEM: ATOMS id type xs ys zs 
1 1 -4.21208e-19 4.21208e-19 -4.21208e-19 
2 1 0.5 0.5 -4.21208e-19 
3 1 0.5 -1.40616e-19 0.5 
4 1 -2.66836e-19 0.5 0.5 
5 2 0.5 4.21208e-19 -4.21208e-19 
6 2 8.51661e-19 0.5 -4.21208e-19 
7 2 -6.9729e-19 -1.40616e-19 0.5 
8 2 0.5 0.5 0.5 
ITEM: TIMESTEP
46
ITEM: NUMBER OF ATOMS
8
ITEM: BOX BOUNDS xy xz yz pp pp pp
-0.00943 4.10943 7.08002e-09
-0.00943 4.10943 7.08002e-09
-0.00943 4.10943 7.08002e-09
ITEM: ATOMS id type xs ys zs 
1 1 -4.21166e-19 4.21166e-19 -4.21166e-19 
2 1 0.5 0.5 -4.21166e-19 
3 1 0.5 -5.80738e-20 0.5 
4 1 -3.0412e-19 0.5 0.5 
5 2 0.5 4.21166e-19 -4.21166e-19 
6 2 7.38818e-19 0.5 -4.21166e-19 
7 2 -6.21772e-19 -5.80738e-20 0.5 
8 2 0.5 0.5 0.5 
ITEM: TIMESTEP
47
ITEM: NUMBER OF ATOMS
8
ITEM: BOX BOUNDS xy xz yz pp pp pp
-0.009635 4.10964 7.07339e-09
-0.009635 4.10964 7.07339e-09
-0.009635 4.10964 7.07339e-09
ITEM: ATOMS id type xs ys zs 
1 1 -4.21124e-19 4.21124e-19 -4.21124e-19 
2 1 0.5 0.5 -4.21124e-19 
3 1 0.5 9.35235e-20 0.5 
4 1 -4.14753e-19 0.5 0.5 
5 2 0.5 4.21124e-19 -4.21124e-19 
6 2 9.06639e-19 0.5 -4.21124e-19 
7 2 -4.79144e-19 9.35235e-20 0.5 
8 2 0.5 0.5 0.5 
ITEM: TIMESTEP
48
ITEM: NUMBER OF ATOMS
8
ITEM: BOX BOUNDS xy xz yz pp pp pp
-0.00984 4.10984 7.06674e-09
-0.00984 4.10984 7.06674e-09
-0.00984 4.10984 7.06674e-09
ITEM: ATOMS id type xs ys zs 
1 1 -4.21082e-19 4.21082e-19 -4.21082e-19 
2 1 0.5 0.5 -4.21082e-19 
3 1 0.5 -1.0017e-19 0.5 
4 1 -2.33186e-19 0.5 0.5 
5 2 0.5 4.21082e-19 -4.21082e-19 
6 2 8.11603e-19 0.5 -4.21082e-19 
7 2 -6.23708e-19 -1.0017e-19 0.5 
8 2 0.5 0.5 0.5 
ITEM: TIMESTEP
49
ITEM: NUMBER OF ATOMS
8
ITEM: BOX BOUNDS xy xz yz pp pp pp
-0.010045 4.11005 7.06007e-09
-0.010045 4.11005 7.06007e-09
-0.010045 4.11005 7.06007e-09
ITEM: ATOMS id type xs ys zs 
1 1 -4.2104e-19 4.2104e-19 -4.2104e-19 
2 1 0.5 0.5 -4.2104e-19 
3 1 0.5 -1.18573e-19 0.5 
4 1 -3.59333e-19 0.5 0.5 
5 2 0.5 4.2104e-19 -4.2104e-19 
6 2 7.43295e-19 0.5 -4.2104e-19 
7 2 -6.81588e-19 -1.18573e-19 0.5 
8 2 0.5 0.5 0.5 
ITEM: TIMESTEP
50
ITEM: NUMBER OF ATOMS
8
ITEM: BOX BOUNDS xy xz yz pp pp pp
-0.01025 4.11025 7.05336e-09
-0.01025 4.11025 7.05336e-09
-0.01025 4.11025 7.05336e-09
ITEM: ATOMS id type xs ys zs 
1 1 -4.20998e-19 4.20998e-19 -4.20998e-19 
2 1 0.5 0.5 -4.20998e-19 
3 1 0.5 -1.08314e-19 0.5 
4 1 -3.73652e-19 0.5 0.5 
5 2 0.5 4.20998e-19 -4.20998e-19 
6 2 7.72447e-19 0.5 -4.20998e-19 
7 2 -7.25101e-19 -1.08314e-19 0.5 
8 2 0.5 0.5 0.5 
ITEM: TIMESTEP
51
ITEM: NUMBER OF ATOMS
8
ITEM: BOX BOUNDS xy xz yz pp pp pp
-0.010455 4.11046 7.04663e-09
-0.010455 4.11046 7.04663e-09
-0.010455 4.11046 7.04663e-09
ITEM: ATOMS id type xs ys zs 
1 1 -4.20956e-19 4.20956e-19 -4.20956e-19 
2 1 0.5 0.5 -4.20956e-19 
3 1 0.5 -2.59506e-20 0.5 
4 1 -3.6077e-19 0.5 0.5 
5 2 0.5 4.20956e-19 -4.20956e-19 
6 2 7.36028e-19 0.5 -4.20956e-19 
7 2 -6.75842e-19 -2.59506e-20 0.5 
8 2 0.5 0.5 0.5 
ITEM: TIMESTEP
52
ITEM: NUMBER OF ATOMS
8
ITEM: BOX BOUNDS xy xz yz pp pp pp
-0.01066 4.11066 7.03988e-09
-0.01066 4.11066 7.03988e-09
-0.01066 4.11066 7.03988e-09
ITEM: ATOMS id type xs ys zs 
1 1 -4.20915e-19 4.20915e-19 -4.20915e-19 
2 1 0.5 0.5 -4.20915e-19 
3 1 0.5 -2.01664e-19 0.5 
4 1 -5.10046e-19 0.5 0.5 
5 2 0.5 4.20915e-19 -4.20915e-19 
6 2 8.22693e-19 0.5 -4.20915e-19 
7 2 -4.90911e-19 -2.01664e-19 0.5 
8 2 0.5 0.5 0.5 
ITEM: TIMESTEP
53
ITEM: NUMBER OF ATOMS
8
ITEM: BOX BOUNDS xy xz yz pp pp pp
-0.010865 4.11087 7.03309e-09
-0.010865 4.11087 7.03309e-09
-0.010865 4.11087 7.03309e-09
ITEM: ATOMS id type xs ys zs 
1 1 -4.20873e-19 4.20873e-19 -4.20873e-19 
2 1 0.5 0.5 -4.20873e-19 
3 1 0.5 -3.10527e-19 0.5 
4 1 -3.51583e-19 0.5 0.5 
5 2 0.5 4.20873e-19 -4.20873e-19 
6 2 6.72951e-19 0.5 -4.20873e-19 
7 2 -6.03663e-19 -3.10527e-19 0.5 
8 2 0.5 0.5 0.5 
ITEM: TIMESTEP
54
ITEM: NUMBER OF ATOMS
8
ITEM: BOX BOUNDS xy xz yz pp pp pp
-0.01107 4.11107 7.02628e-09
-0.01107 4.11107 7.02628e-09
-0.01107 4.11107 7.02628e-09
ITEM: ATOMS id type xs ys zs 
1 1 -4.20831e-19 4.20831e-19 -4.20831e-19 
2 1 0.5 0.5 -4.20831e-19 
3 1 0.5 -4.31898e-19 0.5 
4 1 -1.95175e-19 0.5 0.5 
5 2 0.5 4.20831e-19 -4.20831e-19 
6 2 4.99671e-19 0.5 -4.20831e-19 
7 2 -6.94847e-19 -4.31898e-19 0.5 
8 2 0.5 0.5 0.5 
ITEM: TIMESTEP
55
ITEM: NUMBER OF ATOMS
8
ITEM: BOX BOUNDS xy xz yz pp pp pp
-0.011275 4.11128 7.01944e-09
-0.011275 4.11128 7.01944e-09
-0.011275 4.11128 7.01944e-09
ITEM: ATOMS id type xs ys zs 
1 1 -4.20789e-19 4.20789e-19 -4.20789e-19 
2 1 0.5 0.5 -4.20789e-19 
3 1 0.5 -4.53299e-19 0.5 
4 1 -3.01961e-19 0.5 0.5 
5 2 0.5 4.20789e-19 -4.20789e-19 
6 2 4.11599e-19 0.5 -4.20789e-19 
7 2 -7.13561e-19 -4.53299e-19 0.5 
8 2 0.5 0.5 0.5 
ITEM: TIMESTEP
56
ITEM: NUMBER OF ATOMS
8
ITEM: BOX BOUNDS xy xz yz pp pp pp
-0.01148 4.11148 7.01257e-09
-0.01148 4.11148 7.01257e-09
-0.01148 4.11148 7.01257e-09
ITEM: ATOMS id type xs ys zs 
1 1 -4.20747e-19 4.20747e-19 -4.20747e-19 
2 1 0.5 0.5 -4.20747e-19 
3 1 0.5 -2.79622e-19 0.5 
4 1 -1.74323e-19 0.5 0.5 
5 2 0.5 4.20747e-19 -4.20747e-19 
6 2 3.20036e-19 0.5 -4.20747e-19 
7 2 -9.15107e-19 -2.79622e-19 0.5 
8 2 0.5 0.5 0.5 
ITEM: TIMESTEP
57
ITEM: NUMBER OF ATOMS
8
ITEM: BOX BOUNDS xy xz yz pp pp pp
-0.011685 4.11169 7.00567e-09
-0.011685 4.11169 7.00567e-09
-0.011685 4.11169 7.00567e-09
ITEM: ATOMS id type xs ys zs 
1 1 -4.20705e-19 4.20705e-19 -4.20705e-19 
2 1 0.5 0.5 -4.20705e-19 
3 1 0.5 -4.79682e-19 0.5 
4 1 2.77006e-20 0.5 0.5 
5 2 0.5 4.20705e-19 -4.20705e-19 
6 2 3.35687e-19 0.5 -4.20705e-19 
7 2 -7.28692e-19 -4.79682e-19 0.5 
8 2 0.5 0.5 0.5 
ITEM: TIMESTEP
58
ITEM: NUMBER OF ATOMS
8
ITEM: BOX BOUNDS xy xz yz pp pp pp
-0.01189 4.11189 6.99874e-09
-0.01189 4.11189 6.99874e-09
-0.01189 4.11189 6.99874e-09
ITEM: ATOMS id type xs ys zs 
1 1 -4.20663e-19 4.20663e-19 -4.20663e-19 
2 1 0.5 0.5 -4.20663e-19 
3 1 0.5 -2.75433e-19 0.5 
4 1 1.41056e-19 0.5 0.5 
5 2 0.5 4.20663e-19 -4.20663e-19 
6 2 2.5261e-19 0.5 -4.20663e-19 
7 2 -5.32218e-19 -2.75433e-19 0.5 
8 2 0.5 0.5 0.5 
ITEM: TIMESTEP
59
ITEM: NUMBER OF ATOMS
8
ITEM: BOX BOUNDS xy xz yz pp pp pp
-0.012095 4.1121 6.99179e-09
-0.012095 4.1121 6.99179e-09
-0.012095 4.1121 6.99179e-09
ITEM: ATOMS id type xs ys zs 
1 1 -4.20622e-19 4.20622e-19 -4.20622e-19 
2 1 0.5 0.5 -4.20622e-19 
3 1 0.5 -2.07201e-19 0.5 
4 1 1.64405e-19 0.5 0.5 
5 2 0.5 4.20622e-19 -4.20622e-19 
6 2 1.90787e-19 0.5 -4.20622e-19 
7 2 -4.47004e-19 -2.07201e-19 0.5 
8 2 0.5 0.5 0.5 
ITEM: TIMESTEP
60
ITEM: NUMBER OF ATOMS
8
ITEM: BOX BOUNDS xy xz yz pp pp pp
-0.0123 4.1123 6.98481e-09
-0.0123 4.1123 6.98481e-09
-0.0123 4.1123 6.98481e-09
ITEM: ATOMS id type xs ys zs 
1 1 -4.2058e-19 4.2058e-19 -4.2058e-19 
2 1 0.5 0.5 -4.2058e-19 
3 1 0.5 -1.76057e-19 0.5 
4 1 2.62499e-19 0.5 0.5 
5 2 0.5 4.2058e-19 -4.2058e-19 
6 2 2.74018e-19 0.5 -4.2058e-19 
7 2 -4.32099e-19 -1.76057e-19 0.5 
8 2 0.5 0.5 0.5 
ITEM: TIMESTEP
61
ITEM: NUMBER OF ATOMS
8
ITEM: BOX BOUNDS xy xz yz pp pp pp
-0.012505 4.11251 6.97779e-09
-0.012505 4.11251 6.97779e-09
-0.012505 4.11251 6.97779e-09
ITEM: ATOMS id type xs ys zs 
1 1 -4.20538e-19 4.20538e-19 -4.20538e-19 
2 1 0.5 0.5 -4.20538e-19 
3 1 0.5 -6.02229e-20 0.5 
4 1 3.01951e-19 0.5 0.5 
5 2 0.5 4.20538e-19 -4.20538e-19 
6 2 2.02145e-19 0.5 -4.20538e-19 
7 2 -3.20733e-19 -6.02229e-20 0.5 
8 2 0.5 0.5 0.5 
ITEM: TIMESTEP
62
ITEM: NUMBER OF ATOMS
8
ITEM: BOX BOUNDS xy xz yz pp pp pp
-0.01271 4.11271 6.97075e-09
-0.01271 4.11271 6.97075e-09
-0.01271 4.11271 6.97075e-09
ITEM: ATOMS id type xs ys zs 
1 1 -4.20496e-19 4.20496e-19 -4.20496e-19 
2 1 0.5 0.5 -4.20496e-19 
3 1 0.5 3.54802e-20 0.5 
4 1 2.28489e-19 0.5 0.5 
5 2 0.5 4.20496e-19 -4.20496e-19 
6 2 1.6321e-20 0.5 -4.20496e-19 
7 2 -2.08329e-19 3.54802e-20 0.5 
8 2 0.5 0.5 0.5 
ITEM: TIMESTEP
63
ITEM: NUMBER OF ATOMS
8
ITEM: BOX BOUNDS xy xz yz pp pp pp
-0.012915 4.11292 6.96368e-09
-0.012915 4.11292 6.96368e-09
-0.012915 4.11292 6.96368e-09
ITEM: ATOMS id type xs ys zs 
1 1 -4.20454e-19 4.20454e-19 -4.20454e-19 
2 1 0.5 0.5 -4.20454e-19 
3 1 0.5 1.23862e-19 0.5 
4 1 2.26907e-19 0.5 0.5 
5 2 0.5 4.20454e-19 -4.20454e-19 
6 2 -2.05383e-20 0.5 -4.20454e-19 
7 2 -1.7301e-19 1.23862e-19 0.5 
8 2 0.5 0.5 0.5 
ITEM: TIMESTEP
64
ITEM: NUMBER OF ATOMS
8
ITEM: BOX BOUNDS xy xz yz pp pp pp
-0.01312 4.11312 6.95657e-09
-0.01312 4.11312 6.95657e-09
-0.01312 4.11312 6.95657e-09
ITEM: ATOMS id type xs ys zs 
1 1 -4.20413e-19 4.20413e-19 -4.20413e-19 
2 1 0.5 0.5 -4.20413e-19 
3 1 0.5 2.94832e-19 0.5 
4 1 3.30502e-19 0.5 0.5 
5 2 0.5 4.20413e-19 -4.20413e-19 
6 2 -6.53883e-20 0.5 -4.20413e-19 
7 2 -2.4523e-20 2.94832e-19 0.5 
8 2 0.5 0.5 0.5 
ITEM: TIMESTEP
65
ITEM: NUMBER OF ATOMS
8
ITEM: BOX BOUNDS xy xz yz pp pp pp
-0.013325 4.11333 6.94944e-09
-0.013325 4.11333 6.94944e-09
-0.013325 4.11333 6.94944e-09
ITEM: ATOMS id type xs ys zs 
1 1 -4.20371e-19 4.20371e-19 -4.20371e-19 
2 1 0.5 0.5 -4.20371e-19 
3 1 0.5 2.23853e-19 0.5 
4 1 4.21412e-19 0.5 0.5 
5 2 0.5 4.20371e-19 -4.20371e-19 
6 2 -2.75348e-19 0.5 -4.20371e-19 
7 2 -1.43982e-19 2.23853e-19 0.5 
8 2 0.5 0.5 0.5 
ITEM: TIMESTEP
66
ITEM: NUMBER OF ATOMS
8
ITEM: BOX BOUNDS xy xz yz pp pp pp
-0.01353 4.11353 6.94227e-09
-0.01353 4.11353 6.94227e-09
-0.01353 4.11353 6.94227e-09
ITEM: ATOMS id type xs ys zs 
1 1 -4.20329e-19 4.20329e-19 -4.20329e-19 
2 1 0.5 0.5 -4.20329e-19 
3 1 0.5 1.6412e-19 0.5 
4 1 5.8413e-19 0.5 0.5 
5 2 0.5 4.20329e-19 -4.20329e-19 
6 2 -4.20592e-19 0.5 -4.20329e-19 
7 2 -2.56266e-19 1.6412e-19 0.5 
8 2 0.5 0.5 0.5 
ITEM: TIMESTEP
67
ITEM: NUMBER OF ATOMS
8
ITEM: BOX BOUNDS xy xz yz pp pp pp
-0.013735 4.11374 6.93508e-09
-0.013735 4.11374 6.93508e-09
-0.013735 4.11374 6.93508e-09
ITEM: ATOMS id type xs ys zs 
1 1 -4.20287e-19 4.20287e-19 -4.20287e-19 
2 1 0.5 0.5 -4.20287e-19 
3 1 0.5 -1.68909e-20 0.5 
4 1 5.13658e-19 0.5 0.5 
5 2 0.5 4.20287e-19 -4.20287e-19 
6 2 -2.752e-19 0.5 -4.20287e-19 
7 2 -5.17182e-20 -1.68909e-20 0.5 
8 2 0.5 0.5 0.5 
ITEM: TIMESTEP
68
ITEM: NUMBER OF ATOMS
8
ITEM: BOX BOUNDS xy xz yz pp pp pp
-0.01394 4.11394 6.92785e-09
-0.01394 4.11394 6.92785e-09
-0.01394 4.11394 6.92785e-09
ITEM: ATOMS id type xs ys zs 
1 1 -4.20246e-19 4.20246e-19 -4.20246e-19 
2 1 0.5 0.5 -4.20246e-19 
3 1 0.5 9.49552e-20 0.5 
4 1 3.78197e-19 0.5 0.5 
5 2 0.5 4.20246e-19 -4.20246e-19 
6 2 -8.19832e-20 0.5 -4.20246e-19 
7 2 3.99335e-20 9.49552e-20 0.5 
8 2 0.5 0.5 0.5 
ITEM: TIMESTEP
69
ITEM: NUMBER OF ATOMS
8
ITEM: BOX BOUNDS xy xz yz pp pp pp
-0.014145 4.11415 6.9206e-09
-0.014145 4.11415 6.9206e-09
-0.014145 4.11415 6.9206e-09
ITEM: ATOMS id type xs ys zs 
1 1 -4.20204e-19 4.20204e-19 -4.20204e-19 
2 1 0.5 0.5 -4.20204e-19 
3 1 0.5 2.05915e-19 0.5 
4 1 5.69854e-19 0.5 0.5 
5 2 0.5 4.20204e-19 -4.20204e-19 
6 2 3.52296e-20 0.5 -4.20204e-19 
7 2 1.14419e-19 2.05915e-19 0.5 