8
Atoms. Timestep: 0
1 0 0 0
1 2.106 2.106 0
1 2.106 3.78005e-09 2.106
1 7.56011e-09 2.106 2.106
2 2.106 0 0
2 3.78005e-09 2.106 0
2 3.78005e-09 3.78005e-09 2.106
2 2.106 2.106 2.106
8
Atoms. Timestep: 1
1 -0.000167204 -0.000167204 -0.000167204
1 2.106 2.106 -0.000167204
1 2.106 -0.000167201 2.106
1 -0.000167198 2.106 2.106
2 2.106 -0.000167204 -0.000167204
2 -0.000167201 2.106 -0.000167204
2 -0.000167201 -0.000167201 2.106
2 2.106 2.106 2.106
8
Atoms. Timestep: 2
1 -0.000167204 -0.000167204 -0.000167204
1 2.106 2.106 -0.000167204
1 2.106 -0.000167203 2.106
1 -0.000167203 2.106 2.106
2 2.106 -0.000167204 -0.000167204
2 -0.000167203 2.106 -0.000167204
2 -0.000167203 -0.000167203 2.106
2 2.106 2.106 2.106
8
Atoms. Timestep: 3
1 -0.000167188 -0.000167188 -0.000167188
1 2.106 2.106 -0.000167188
1 2.106 -0.000167188 2.106
1 -0.000167188 2.106 2.106
2 2.106 -0.000167188 -0.000167188
2 -0.000167188 2.106 -0.000167188
2 -0.000167188 -0.000167188 2.106
2 2.106 2.106 2.106
8
Atoms. Timestep: 4
1 -0.000167188 -0.000167188 -0.000167188
1 2.106 2.106 -0.000167188
1 2.106 -0.000167188 2.106
1 -0.000167188 2.106 2.106
2 2.106 -0.000167188 -0.000167188
2 -0.000167188 2.106 -0.000167188
2 -0.000167188 -0.000167188 2.106
2 2.106 2.106 2.106
8
Atoms. Timestep: 5
1 -0.000167188 -0.000167188 -0.000167188
1 2.106 2.106 -0.000167188
1 2.106 -0.000167188 2.106
1 -0.000167188 2.106 2.106
2 2.106 -0.000167188 -0.000167188
2 -0.000167188 2.106 -0.000167188
2 -0.000167188 -0.000167188 2.106
2 2.106 2.106 2.106
8
Atoms. Timestep: 6
1 -0.000167188 -0.000167188 -0.000167188
1 2.106 2.106 -0.000167188
1 2.106 -0.000167188 2.106
1 -0.000167188 2.106 2.106
2 2.106 -0.000167188 -0.000167188
2 -0.000167188 2.106 -0.000167188
2 -0.000167188 -0.000167188 2.106
2 2.106 2.106 2.106
