ITEM: TIMESTEP
0
ITEM: NUMBER OF ATOMS
8
ITEM: BOX BOUNDS xy xz yz pp pp pp
0 4.212 7.56011e-09
0 4.212 7.56011e-09
0 4.212 7.56011e-09
ITEM: ATOMS id type xs ys zs 
1 1 0 0 0 
2 1 0.5 0.5 0 
3 1 0.5 3.10193e-25 0.5 
4 1 3.10193e-25 0.5 0.5 
5 2 0.5 0 0 
6 2 3.10193e-25 0.5 0 
7 2 3.10193e-25 3.10193e-25 0.5 
8 2 0.5 0.5 0.5 
ITEM: TIMESTEP
1
ITEM: NUMBER OF ATOMS
8
ITEM: BOX BOUNDS xy xz yz pp pp pp
-0.000167204 4.21217 5.75153e-09
-0.000167204 4.21217 5.75153e-09
-0.000167204 4.21217 5.75153e-09
ITEM: ATOMS id type xs ys zs 
1 1 3.39108e-18 1.2612e-18 0 
2 1 0.5 0.5 -5.85557e-19 
3 1 0.5 1.8455e-18 0.5 
4 1 8.70391e-19 0.5 0.5 
5 2 0.5 1.47354e-18 -1.46067e-18 
6 2 3.15162e-18 0.5 -7.85032e-19 
7 2 4.88702e-18 1.25995e-18 0.5 
8 2 0.5 0.5 0.5 
ITEM: TIMESTEP
2
ITEM: NUMBER OF ATOMS
8
ITEM: BOX BOUNDS xy xz yz pp pp pp
-0.000167204 4.21217 2.76292e-10
-0.000167204 4.21217 2.76291e-10
-0.000167204 4.21217 2.76291e-10
ITEM: ATOMS id type xs ys zs 
1 1 3.47537e-17 1.50636e-17 6.89798e-18 
2 1 0.5 0.5 3.21734e-19 
3 1 0.5 9.19539e-18 0.5 
4 1 1.96872e-17 0.5 0.5 
5 2 0.5 8.26214e-18 9.71638e-19 
6 2 7.54519e-18 0.5 4.85819e-18 
7 2 6.14492e-18 8.15941e-18 0.5 
8 2 0.5 0.5 0.5 
ITEM: TIMESTEP
3
ITEM: NUMBER OF ATOMS
8
ITEM: BOX BOUNDS xy xz yz pp pp pp
-0.000167188 4.21217 2.09788e-10
-0.000167188 4.21217 2.09788e-10
-0.000167188 4.21217 2.09788e-10
ITEM: ATOMS id type xs ys zs 
1 1 3.83057e-17 1.70326e-17 3.98307e-18 
2 1 0.5 0.5 2.70257e-18 
3 1 0.5 1.12689e-17 0.5 
4 1 2.55218e-17 0.5 0.5 
5 2 0.5 9.74855e-18 -1.68589e-18 
6 2 1.27481e-17 0.5 2.41301e-18 
7 2 1.1667e-17 8.71437e-18 0.5 
8 2 0.5 0.5 0.5 
ITEM: TIMESTEP
4
ITEM: NUMBER OF ATOMS
8
ITEM: BOX BOUNDS xy xz yz pp pp pp
-0.000167188 4.21217 1.54972e-14
-0.000167188 4.21217 1.47262e-14
-0.000167188 4.21217 1.484e-14
ITEM: ATOMS id type xs ys zs 
1 1 4.16003e-17 9.45256e-18 2.00762e-18 
2 1 0.5 0.5 3.73212e-18 
3 1 0.5 1.50584e-17 0.5 
4 1 4.19921e-17 0.5 0.5 
5 2 0.5 1.46582e-17 -6.93659e-18 
6 2 4.24009e-17 0.5 -2.52883e-18 
7 2 2.41911e-17 7.72286e-18 0.5 
8 2 0.5 0.5 0.5 
ITEM: TIMESTEP
5
ITEM: NUMBER OF ATOMS
8
ITEM: BOX BOUNDS xy xz yz pp pp pp
-0.000167188 4.21217 -6.61191e-17
-0.000167188 4.21217 -9.42993e-16
-0.000167188 4.21217 -8.87644e-16
ITEM: ATOMS id type xs ys zs 
1 1 4.49913e-17 1.26056e-17 3.42969e-18 
2 1 0.5 0.5 2.45162e-18 
3 1 0.5 1.60426e-17 0.5 
4 1 4.60906e-17 0.5 0.5 
5 2 0.5 1.46196e-17 -6.00356e-18 
6 2 4.60317e-17 0.5 -2.60605e-18 
7 2 2.68722e-17 9.53713e-18 0.5 
8 2 0.5 0.5 0.5 
ITEM: TIMESTEP
6
ITEM: NUMBER OF ATOMS
8
ITEM: BOX BOUNDS xy xz yz pp pp pp
-0.000167188 4.21217 -6.88433e-16
-0.000167188 4.21217 -2.1518e-15
-0.000167188 4.21217 -2.1496e-15
ITEM: ATOMS id type xs ys zs 
1 1 4.9412e-17 3.29456e-18 -7.59293e-19 
2 1 0.5 0.5 -3.27526e-18 
3 1 0.5 2.31915e-17 0.5 
4 1 5.72691e-17 0.5 0.5 
5 2 0.5 7.51571e-18 -1.8815e-17 
6 2 4.60296e-17 0.5 -1.59902e-17 
7 2 3.47841e-17 1.86164e-17 0.5 
8 2 0.5 0.5 0.5 
