ITEM: TIMESTEP
2919
ITEM: NUMBER OF ATOMS
288
ITEM: BOX BOUNDS pp pp pp
0 4.212
0 25.272
0 25.272
ITEM: ATOMS id type xs ys zs 
27 1 0 0.0859403 0.0854153 
28 2 0.5 0.0859403 0.0854153 
29 2 0 0.0878793 0.165677 
30 1 0.5 0.0878793 0.165677 
51 2 0 0.163515 0.0771059 
52 1 0.5 0.163515 0.0771059 
53 1 0 0.16354 0.157421 
54 2 0.5 0.16354 0.157421 
25 2 0 0.0801247 0.00889236 
26 1 0.5 0.0801247 0.00889236 
1 1 0 0.000801957 0.00648522 
2 2 0.5 0.000801957 0.00648522 
5 1 0 0.00112697 0.16186 
6 2 0.5 0.00112697 0.16186 
73 2 0 0.249126 0.0122933 
74 1 0.5 0.249126 0.0122933 
75 1 0 0.261083 0.0809004 
76 2 0.5 0.261083 0.0809004 
77 2 0 0.239378 0.156578 
78 1 0.5 0.239378 0.156578 
99 2 0 0.342888 0.084936 
100 1 0.5 0.342888 0.084936 
101 1 0 0.319166 0.166845 
102 2 0.5 0.319166 0.166845 
123 1 0 0.416405 0.0875168 
124 2 0.5 0.416405 0.0875168 
125 2 0 0.407141 0.167197 
126 1 0.5 0.407141 0.167197 
145 1 0 0.495132 0.00754294 
146 2 0.5 0.495132 0.00754294 
147 2 0 0.513958 0.0928799 
148 1 0.5 0.513958 0.0928799 
149 1 0 0.499024 0.166991 
150 2 0.5 0.499024 0.166991 
171 1 0 0.590031 0.0943655 
172 2 0.5 0.590031 0.0943655 
173 2 0 0.588791 0.176963 
174 1 0.5 0.588791 0.176963 
169 2 0 0.5798 0.00182808 
170 1 0.5 0.5798 0.00182808 
195 2 0 0.668486 0.0852345 
196 1 0.5 0.668486 0.0852345 
197 1 0 0.672558 0.168734 
198 2 0.5 0.672558 0.168734 
219 1 0 0.748782 0.0782011 
220 2 0.5 0.748782 0.0782011 
221 2 0 0.754481 0.161003 
222 1 0.5 0.754481 0.161003 
193 1 0 0.659319 0.0032016 
194 2 0.5 0.659319 0.0032016 
3 2 0 0.999104 0.0852108 
4 1 0.5 0.999104 0.0852108 
243 2 0 0.826177 0.0763678 
244 1 0.5 0.826177 0.0763678 
245 1 0 0.832483 0.156875 
246 2 0.5 0.832483 0.156875 
267 1 0 0.915546 0.078325 
268 2 0.5 0.915546 0.078325 
269 2 0 0.910165 0.157644 
270 1 0.5 0.910165 0.157644 
265 2 0 0.914911 0.00113357 
266 1 0.5 0.914911 0.00113357 
31 1 0 0.0873926 0.246121 
32 2 0.5 0.0873926 0.246121 
33 2 0 0.0806623 0.333903 
34 1 0.5 0.0806623 0.333903 
55 2 0 0.172379 0.253397 
56 1 0.5 0.172379 0.253397 
57 1 0 0.165761 0.332924 
58 2 0.5 0.165761 0.332924 
79 1 0 0.24692 0.241322 
80 2 0.5 0.24692 0.241322 
81 2 0 0.246406 0.334876 
82 1 0.5 0.246406 0.334876 
103 2 0 0.325845 0.249396 
104 1 0.5 0.325845 0.249396 
105 1 0 0.326761 0.328889 
106 2 0.5 0.326761 0.328889 
127 1 0 0.406689 0.250105 
128 2 0.5 0.406689 0.250105 
129 2 0 0.418328 0.333226 
130 1 0.5 0.418328 0.333226 
151 2 0 0.477531 0.243947 
152 1 0.5 0.477531 0.243947 
153 1 0 0.49822 0.337747 
154 2 0.5 0.49822 0.337747 
175 1 0 0.569567 0.249423 
176 2 0.5 0.569567 0.249423 
177 2 0 0.579048 0.325652 
178 1 0.5 0.579048 0.325652 
199 2 0 0.683865 0.24968 
200 1 0.5 0.683865 0.24968 
201 1 0 0.666009 0.328481 
202 2 0.5 0.666009 0.328481 
223 1 0 0.761692 0.257865 
224 2 0.5 0.761692 0.257865 
225 2 0 0.753574 0.333176 
226 1 0.5 0.753574 0.333176 
7 2 0 0.997954 0.244212 
8 1 0.5 0.997954 0.244212 
9 1 0 0.998865 0.329416 
10 2 0.5 0.998865 0.329416 
247 2 0 0.843851 0.250638 
248 1 0.5 0.843851 0.250638 
249 1 0 0.835887 0.334256 
250 2 0.5 0.835887 0.334256 
271 1 0 0.918847 0.232441 
272 2 0.5 0.918847 0.232441 
273 2 0 0.918354 0.344585 
274 1 0.5 0.918354 0.344585 
35 1 0 0.0818954 0.415808 
36 2 0.5 0.0818954 0.415808 
37 2 0 0.0837158 0.504108 
38 1 0.5 0.0837158 0.504108 
39 1 0 0.0907677 0.582851 
40 2 0.5 0.0907677 0.582851 
59 2 0 0.160539 0.419811 
60 1 0.5 0.160539 0.419811 
61 1 0 0.164584 0.499595 
62 2 0.5 0.164584 0.499595 
13 1 0 0.00144974 0.506014 
14 2 0.5 0.00144974 0.506014 
63 2 0 0.171382 0.587436 
64 1 0.5 0.171382 0.587436 
15 2 0 0.00592625 0.587839 
16 1 0.5 0.00592625 0.587839 
107 2 0 0.338039 0.414776 
108 1 0.5 0.338039 0.414776 
83 1 0 0.24745 0.417141 
84 2 0.5 0.24745 0.417141 
85 2 0 0.242482 0.493076 
86 1 0.5 0.242482 0.493076 
109 1 0 0.331928 0.495783 
110 2 0.5 0.331928 0.495783 
111 2 0 0.333811 0.585646 
112 1 0.5 0.333811 0.585646 
87 1 0 0.257156 0.589268 
88 2 0.5 0.257156 0.589268 
133 2 0 0.414945 0.498982 
134 1 0.5 0.414945 0.498982 
131 1 0 0.419157 0.417449 
132 2 0.5 0.419157 0.417449 
135 1 0 0.416089 0.581299 
136 2 0.5 0.416089 0.581299 
155 2 0 0.502191 0.419836 
156 1 0.5 0.502191 0.419836 
157 1 0 0.506726 0.50486 
158 2 0.5 0.506726 0.50486 
159 2 0 0.500445 0.586446 
160 1 0.5 0.500445 0.586446 
179 1 0 0.583365 0.414033 
180 2 0.5 0.583365 0.414033 
181 2 0 0.59008 0.496886 
182 1 0.5 0.59008 0.496886 
183 1 0 0.581361 0.587265 
184 2 0.5 0.581361 0.587265 
203 2 0 0.662736 0.408675 
204 1 0.5 0.662736 0.408675 
205 1 0 0.665931 0.494241 
206 2 0.5 0.665931 0.494241 
207 2 0 0.655398 0.576723 
208 1 0.5 0.655398 0.576723 
227 1 0 0.756736 0.431394 
228 2 0.5 0.756736 0.431394 
229 2 0 0.742353 0.504344 
230 1 0.5 0.742353 0.504344 
231 1 0 0.73951 0.576014 
232 2 0.5 0.73951 0.576014 
11 2 0 0.999911 0.420771 
12 1 0.5 0.999911 0.420771 
251 2 0 0.820828 0.409748 
252 1 0.5 0.820828 0.409748 
253 1 0 0.841719 0.510592 
254 2 0.5 0.841719 0.510592 
255 2 0 0.813713 0.580173 
256 1 0.5 0.813713 0.580173 
275 1 0 0.921334 0.422347 
276 2 0.5 0.921334 0.422347 
277 2 0 0.930087 0.522 
278 1 0.5 0.930087 0.522 
41 2 0 0.0836371 0.65746 
42 1 0.5 0.0836371 0.65746 
43 1 0 0.0608183 0.730008 
44 2 0.5 0.0608183 0.730008 
65 1 0 0.161901 0.666819 
66 2 0.5 0.161901 0.666819 
67 2 0 0.155021 0.746352 
68 1 0.5 0.155021 0.746352 
89 2 0 0.245911 0.668931 
90 1 0.5 0.245911 0.668931 
91 1 0 0.237761 0.750266 
92 2 0.5 0.237761 0.750266 
113 1 0 0.332385 0.664123 
114 2 0.5 0.332385 0.664123 
115 2 0 0.31876 0.743585 
116 1 0.5 0.31876 0.743585 
137 2 0 0.428639 0.672372 
138 1 0.5 0.428639 0.672372 
139 1 0 0.42021 0.752444 
140 2 0.5 0.42021 0.752444 
161 1 0 0.502498 0.662326 
162 2 0.5 0.502498 0.662326 
163 2 0 0.500695 0.758432 
164 1 0.5 0.500695 0.758432 
187 1 0 0.573826 0.747591 
188 2 0.5 0.573826 0.747591 
185 2 0 0.585187 0.671097 
186 1 0.5 0.585187 0.671097 
209 1 0 0.663653 0.662984 
210 2 0.5 0.663653 0.662984 
211 2 0 0.678421 0.745781 
212 1 0.5 0.678421 0.745781 
233 2 0 0.738255 0.651875 
234 1 0.5 0.738255 0.651875 
235 1 0 0.768462 0.753034 
236 2 0.5 0.768462 0.753034 
17 1 0 0.995925 0.664642 
18 2 0.5 0.995925 0.664642 
19 2 0 0.997202 0.755195 
20 1 0.5 0.997202 0.755195 
279 1 0 0.925275 0.603418 
280 2 0.5 0.925275 0.603418 
257 1 0 0.8318 0.658541 
258 2 0.5 0.8318 0.658541 
259 2 0 0.840664 0.737123 
260 1 0.5 0.840664 0.737123 
281 2 0 0.921139 0.678242 
282 1 0.5 0.921139 0.678242 
283 1 0 0.917357 0.754177 
284 2 0.5 0.917357 0.754177 
49 1 0 0.156001 0.999605 
50 2 0.5 0.156001 0.999605 
45 2 0 0.0867178 0.843977 
46 1 0.5 0.0867178 0.843977 
47 1 0 0.0714531 0.916003 
48 2 0.5 0.0714531 0.916003 
69 1 0 0.166127 0.838604 
70 2 0.5 0.166127 0.838604 
71 2 0 0.150026 0.916864 
72 1 0.5 0.150026 0.916864 
21 1 0 0.00433126 0.836114 
22 2 0.5 0.00433126 0.836114 
93 2 0 0.245438 0.829529 
94 1 0.5 0.245438 0.829529 
95 1 0 0.235834 0.911188 
96 2 0.5 0.235834 0.911188 
97 1 0 0.317677 0.982359 
98 2 0.5 0.317677 0.982359 
117 1 0 0.323771 0.825093 
118 2 0.5 0.323771 0.825093 
119 2 0 0.323404 0.905961 
120 1 0.5 0.323404 0.905961 
121 2 0 0.412057 0.997312 
122 1 0.5 0.412057 0.997312 
141 2 0 0.408529 0.830501 
142 1 0.5 0.408529 0.830501 
143 1 0 0.40911 0.910953 
144 2 0.5 0.40911 0.910953 
165 1 0 0.509982 0.844785 
166 2 0.5 0.509982 0.844785 
167 2 0 0.498162 0.921379 
168 1 0.5 0.498162 0.921379 
191 1 0 0.583468 0.919004 
192 2 0.5 0.583468 0.919004 
189 2 0 0.593014 0.831681 
190 1 0.5 0.593014 0.831681 
213 1 0 0.668503 0.82684 
214 2 0.5 0.668503 0.82684 
215 2 0 0.663447 0.92253 
216 1 0.5 0.663447 0.92253 
217 2 0 0.740437 0.993762 
218 1 0.5 0.740437 0.993762 
237 2 0 0.757772 0.831344 
238 1 0.5 0.757772 0.831344 
239 1 0 0.74604 0.911521 
240 2 0.5 0.74604 0.911521 
23 2 0 0.999864 0.921081 
24 1 0.5 0.999864 0.921081 
241 1 0 0.821219 0.992195 
242 2 0.5 0.821219 0.992195 
261 1 0 0.841036 0.83755 
262 2 0.5 0.841036 0.83755 
263 2 0 0.831913 0.918698 
264 1 0.5 0.831913 0.918698 
285 2 0 0.921081 0.836014 
286 1 0.5 0.921081 0.836014 
287 1 0 0.921408 0.921533 
288 2 0.5 0.921408 0.921533 
ITEM: TIMESTEP
2920
ITEM: NUMBER OF ATOMS
288
ITEM: BOX BOUNDS pp pp pp
0 4.212
0 25.272
0 25.272
ITEM: ATOMS id type xs ys zs 
27 1 0 0.0859403 0.0854153 
28 2 0.5 0.0859403 0.0854153 
29 2 0 0.0878793 0.165677 
30 1 0.5 0.0878793 0.165677 
51 2 0 0.163515 0.0771059 
52 1 0.5 0.163515 0.0771059 
53 1 0 0.16354 0.157421 
54 2 0.5 0.16354 0.157421 
25 2 0 0.0801247 0.00889236 
26 1 0.5 0.0801247 0.00889236 
1 1 0 0.000801957 0.00648522 
2 2 0.5 0.000801957 0.00648522 
5 1 0 0.00112697 0.16186 
6 2 0.5 0.00112697 0.16186 
73 2 0 0.249126 0.0122933 
74 1 0.5 0.249126 0.0122933 
75 1 0 0.261083 0.0809004 
76 2 0.5 0.261083 0.0809004 
77 2 0 0.239378 0.156578 
78 1 0.5 0.239378 0.156578 
99 2 0 0.342888 0.084936 
100 1 0.5 0.342888 0.084936 
101 1 0 0.319166 0.166845 
102 2 0.5 0.319166 0.166845 
123 1 0 0.416405 0.0875168 
124 2 0.5 0.416405 0.0875168 
125 2 0 0.407141 0.167197 
126 1 0.5 0.407141 0.167197 
145 1 0 0.495132 0.00754294 
146 2 0.5 0.495132 0.00754294 
147 2 0 0.513958 0.0928799 
148 1 0.5 0.513958 0.0928799 
149 1 0 0.499024 0.166991 
150 2 0.5 0.499024 0.166991 
171 1 0 0.590031 0.0943655 
172 2 0.5 0.590031 0.0943655 
173 2 0 0.588791 0.176963 
174 1 0.5 0.588791 0.176963 
169 2 0 0.5798 0.00182808 
170 1 0.5 0.5798 0.00182808 
195 2 0 0.668486 0.0852345 
196 1 0.5 0.668486 0.0852345 
197 1 0 0.672558 0.168734 
198 2 0.5 0.672558 0.168734 
219 1 0 0.748782 0.0782011 
220 2 0.5 0.748782 0.0782011 
221 2 0 0.754481 0.161003 
222 1 0.5 0.754481 0.161003 
193 1 0 0.659319 0.0032016 
194 2 0.5 0.659319 0.0032016 
3 2 0 0.999104 0.0852108 
4 1 0.5 0.999104 0.0852108 
243 2 0 0.826177 0.0763678 
244 1 0.5 0.826177 0.0763678 
245 1 0 0.832483 0.156875 
246 2 0.5 0.832483 0.156875 
267 1 0 0.915546 0.078325 
268 2 0.5 0.915546 0.078325 
269 2 0 0.910165 0.157644 
270 1 0.5 0.910165 0.157644 
265 2 0 0.914911 0.00113357 
266 1 0.5 0.914911 0.00113357 
31 1 0 0.0873926 0.246121 
32 2 0.5 0.0873926 0.246121 
33 2 0 0.0806623 0.333903 
34 1 0.5 0.0806623 0.333903 
55 2 0 0.172379 0.253397 
56 1 0.5 0.172379 0.253397 
57 1 0 0.165761 0.332924 
58 2 0.5 0.165761 0.332924 
79 1 0 0.24692 0.241322 
80 2 0.5 0.24692 0.241322 
81 2 0 0.246406 0.334876 
82 1 0.5 0.246406 0.334876 
103 2 0 0.325845 0.249396 
104 1 0.5 0.325845 0.249396 
105 1 0 0.326761 0.328889 
106 2 0.5 0.326761 0.328889 
127 1 0 0.406689 0.250105 
128 2 0.5 0.406689 0.250105 
129 2 0 0.418328 0.333226 
130 1 0.5 0.418328 0.333226 
151 2 0 0.477531 0.243947 
152 1 0.5 0.477531 0.243947 
153 1 0 0.49822 0.337747 
154 2 0.5 0.49822 0.337747 
175 1 0 0.569567 0.249423 
176 2 0.5 0.569567 0.249423 
177 2 0 0.579048 0.325652 
178 1 0.5 0.579048 0.325652 
199 2 0 0.683865 0.24968 
200 1 0.5 0.683865 0.24968 
201 1 0 0.666009 0.328481 
202 2 0.5 0.666009 0.328481 
223 1 0 0.761692 0.257865 
224 2 0.5 0.761692 0.257865 
225 2 0 0.753574 0.333176 
226 1 0.5 0.753574 0.333176 
7 2 0 0.997954 0.244212 
8 1 0.5 0.997954 0.244212 
9 1 0 0.998865 0.329416 
10 2 0.5 0.998865 0.329416 
247 2 0 0.843851 0.250638 
248 1 0.5 0.843851 0.250638 
249 1 0 0.835887 0.334256 
250 2 0.5 0.835887 0.334256 
271 1 0 0.918847 0.232441 
272 2 0.5 0.918847 0.232441 
273 2 0 0.918354 0.344585 
274 1 0.5 0.918354 0.344585 
35 1 0 0.0818954 0.415808 
36 2 0.5 0.0818954 0.415808 
37 2 0 0.0837158 0.504108 
38 1 0.5 0.0837158 0.504108 
39 1 0 0.0907677 0.582851 
40 2 0.5 0.0907677 0.582851 
59 2 0 0.160539 0.419811 
60 1 0.5 0.160539 0.419811 
61 1 0 0.164584 0.499595 
62 2 0.5 0.164584 0.499595 
13 1 0 0.00144974 0.506014 
14 2 0.5 0.00144974 0.506014 
63 2 0 0.171382 0.587436 
64 1 0.5 0.171382 0.587436 
15 2 0 0.00592625 0.587839 
16 1 0.5 0.00592625 0.587839 
107 2 0 0.338039 0.414776 
108 1 0.5 0.338039 0.414776 
83 1 0 0.24745 0.417141 
84 2 0.5 0.24745 0.417141 
85 2 0 0.242482 0.493076 
86 1 0.5 0.242482 0.493076 
109 1 0 0.331928 0.495783 
110 2 0.5 0.331928 0.495783 
111 2 0 0.333811 0.585646 
112 1 0.5 0.333811 0.585646 
87 1 0 0.257156 0.589268 
88 2 0.5 0.257156 0.589268 
133 2 0 0.414945 0.498982 
134 1 0.5 0.414945 0.498982 
131 1 0 0.419157 0.417449 
132 2 0.5 0.419157 0.417449 
135 1 0 0.416089 0.581299 
136 2 0.5 0.416089 0.581299 
155 2 0 0.502191 0.419836 
156 1 0.5 0.502191 0.419836 
157 1 0 0.506726 0.50486 
158 2 0.5 0.506726 0.50486 
159 2 0 0.500445 0.586446 
160 1 0.5 0.500445 0.586446 
179 1 0 0.583365 0.414033 
180 2 0.5 0.583365 0.414033 
181 2 0 0.59008 0.496886 
182 1 0.5 0.59008 0.496886 
183 1 0 0.581361 0.587265 
184 2 0.5 0.581361 0.587265 
203 2 0 0.662736 0.408675 
204 1 0.5 0.662736 0.408675 
205 1 0 0.665931 0.494241 
206 2 0.5 0.665931 0.494241 
207 2 0 0.655398 0.576723 
208 1 0.5 0.655398 0.576723 
227 1 0 0.756736 0.431394 
228 2 0.5 0.756736 0.431394 
229 2 0 0.742353 0.504344 
230 1 0.5 0.742353 0.504344 
231 1 0 0.73951 0.576014 
232 2 0.5 0.73951 0.576014 
11 2 0 0.999911 0.420771 
12 1 0.5 0.999911 0.420771 
251 2 0 0.820828 0.409748 
252 1 0.5 0.820828 0.409748 
253 1 0 0.841719 0.510592 
254 2 0.5 0.841719 0.510592 
255 2 0 0.813713 0.580173 
256 1 0.5 0.813713 0.580173 
275 1 0 0.921334 0.422347 
276 2 0.5 0.921334 0.422347 
277 2 0 0.930087 0.522 
278 1 0.5 0.930087 0.522 
41 2 0 0.0836371 0.65746 
42 1 0.5 0.0836371 0.65746 
43 1 0 0.0608183 0.730008 
44 2 0.5 0.0608183 0.730008 
65 1 0 0.161901 0.666819 
66 2 0.5 0.161901 0.666819 
67 2 0 0.155021 0.746352 
68 1 0.5 0.155021 0.746352 
89 2 0 0.245911 0.668931 
90 1 0.5 0.245911 0.668931 
91 1 0 0.237761 0.750266 
92 2 0.5 0.237761 0.750266 
113 1 0 0.332385 0.664123 
114 2 0.5 0.332385 0.664123 
115 2 0 0.31876 0.743585 
116 1 0.5 0.31876 0.743585 
137 2 0 0.428639 0.672372 
138 1 0.5 0.428639 0.672372 
139 1 0 0.42021 0.752444 
140 2 0.5 0.42021 0.752444 
161 1 0 0.502498 0.662326 
162 2 0.5 0.502498 0.662326 
163 2 0 0.500695 0.758432 
164 1 0.5 0.500695 0.758432 
187 1 0 0.573826 0.747591 
188 2 0.5 0.573826 0.747591 
185 2 0 0.585187 0.671097 
186 1 0.5 0.585187 0.671097 
209 1 0 0.663653 0.662984 
210 2 0.5 0.663653 0.662984 
211 2 0 0.678421 0.745781 
212 1 0.5 0.678421 0.745781 
233 2 0 0.738255 0.651875 
234 1 0.5 0.738255 0.651875 
235 1 0 0.768462 0.753034 
236 2 0.5 0.768462 0.753034 
17 1 0 0.995925 0.664642 
18 2 0.5 0.995925 0.664642 
19 2 0 0.997202 0.755195 
20 1 0.5 0.997202 0.755195 
279 1 0 0.925275 0.603418 
280 2 0.5 0.925275 0.603418 
257 1 0 0.8318 0.658541 
258 2 0.5 0.8318 0.658541 
259 2 0 0.840664 0.737123 
260 1 0.5 0.840664 0.737123 
281 2 0 0.921139 0.678242 
282 1 0.5 0.921139 0.678242 
283 1 0 0.917357 0.754177 
284 2 0.5 0.917357 0.754177 
49 1 0 0.156001 0.999605 
50 2 0.5 0.156001 0.999605 
45 2 0 0.0867178 0.843977 
46 1 0.5 0.0867178 0.843977 
47 1 0 0.0714531 0.916003 
48 2 0.5 0.0714531 0.916003 
69 1 0 0.166127 0.838604 
70 2 0.5 0.166127 0.838604 
71 2 0 0.150026 0.916864 
72 1 0.5 0.150026 0.916864 
21 1 0 0.00433126 0.836114 
22 2 0.5 0.00433126 0.836114 
93 2 0 0.245438 0.829529 
94 1 0.5 0.245438 0.829529 
95 1 0 0.235834 0.911188 
96 2 0.5 0.235834 0.911188 
97 1 0 0.317677 0.982359 
98 2 0.5 0.317677 0.982359 
117 1 0 0.323771 0.825093 
118 2 0.5 0.323771 0.825093 
119 2 0 0.323404 0.905961 
120 1 0.5 0.323404 0.905961 
121 2 0 0.412057 0.997312 
122 1 0.5 0.412057 0.997312 
141 2 0 0.408529 0.830501 
142 1 0.5 0.408529 0.830501 
143 1 0 0.40911 0.910953 
144 2 0.5 0.40911 0.910953 
165 1 0 0.509982 0.844785 
166 2 0.5 0.509982 0.844785 
167 2 0 0.498162 0.921379 
168 1 0.5 0.498162 0.921379 
191 1 0 0.583468 0.919004 
192 2 0.5 0.583468 0.919004 
189 2 0 0.593014 0.831681 
190 1 0.5 0.593014 0.831681 
213 1 0 0.668503 0.82684 
214 2 0.5 0.668503 0.82684 
215 2 0 0.663447 0.92253 
216 1 0.5 0.663447 0.92253 
217 2 0 0.740437 0.993762 
218 1 0.5 0.740437 0.993762 
237 2 0 0.757772 0.831344 
238 1 0.5 0.757772 0.831344 
239 1 0 0.74604 0.911521 
240 2 0.5 0.74604 0.911521 
23 2 0 0.999864 0.921081 
24 1 0.5 0.999864 0.921081 
241 1 0 0.821219 0.992195 
242 2 0.5 0.821219 0.992195 
261 1 0 0.841036 0.83755 
262 2 0.5 0.841036 0.83755 
263 2 0 0.831913 0.918698 
264 1 0.5 0.831913 0.918698 
285 2 0 0.921081 0.836014 
286 1 0.5 0.921081 0.836014 
287 1 0 0.921408 0.921533 
288 2 0.5 0.921408 0.921533 
