ITEM: TIMESTEP
0
ITEM: NUMBER OF ATOMS
288
ITEM: BOX BOUNDS pp pp pp
0 4.212
0 25.272
0 25.272
ITEM: ATOMS id type xs ys zs 
1 1 0 0 0 
2 2 0.5 0 0 
3 2 0 0 0.0833333 
4 1 0.5 0 0.0833333 
5 1 0 0 0.166667 
6 2 0.5 0 0.166667 
7 2 0 0 0.25 
8 1 0.5 0 0.25 
9 1 0 0 0.333333 
10 2 0.5 0 0.333333 
11 2 0 0 0.416667 
12 1 0.5 0 0.416667 
13 1 0 0 0.5 
14 2 0.5 0 0.5 
15 2 0 0 0.583333 
16 1 0.5 0 0.583333 
17 1 0 0 0.666667 
18 2 0.5 0 0.666667 
19 2 0 0 0.75 
20 1 0.5 0 0.75 
21 1 0 0 0.833333 
22 2 0.5 0 0.833333 
23 2 0 0 0.916667 
24 1 0.5 0 0.916667 
25 2 0 0.0833333 0 
26 1 0.5 0.0833333 0 
27 1 0 0.0833333 0.0833333 
28 2 0.5 0.0833333 0.0833333 
29 2 0 0.0833333 0.166667 
30 1 0.5 0.0833333 0.166667 
31 1 0 0.0833333 0.25 
32 2 0.5 0.0833333 0.25 
33 2 0 0.0833333 0.333333 
34 1 0.5 0.0833333 0.333333 
35 1 0 0.0833333 0.416667 
36 2 0.5 0.0833333 0.416667 
37 2 0 0.0833333 0.5 
38 1 0.5 0.0833333 0.5 
39 1 0 0.0833333 0.583333 
40 2 0.5 0.0833333 0.583333 
41 2 0 0.0833333 0.666667 
42 1 0.5 0.0833333 0.666667 
43 1 0 0.0833333 0.75 
44 2 0.5 0.0833333 0.75 
45 2 0 0.0833333 0.833333 
46 1 0.5 0.0833333 0.833333 
47 1 0 0.0833333 0.916667 
48 2 0.5 0.0833333 0.916667 
49 1 0 0.166667 0 
50 2 0.5 0.166667 0 
51 2 0 0.166667 0.0833333 
52 1 0.5 0.166667 0.0833333 
53 1 0 0.166667 0.166667 
54 2 0.5 0.166667 0.166667 
55 2 0 0.166667 0.25 
56 1 0.5 0.166667 0.25 
57 1 0 0.166667 0.333333 
58 2 0.5 0.166667 0.333333 
59 2 0 0.166667 0.416667 
60 1 0.5 0.166667 0.416667 
61 1 0 0.166667 0.5 
62 2 0.5 0.166667 0.5 
63 2 0 0.166667 0.583333 
64 1 0.5 0.166667 0.583333 
65 1 0 0.166667 0.666667 
66 2 0.5 0.166667 0.666667 
67 2 0 0.166667 0.75 
68 1 0.5 0.166667 0.75 
69 1 0 0.166667 0.833333 
70 2 0.5 0.166667 0.833333 
71 2 0 0.166667 0.916667 
72 1 0.5 0.166667 0.916667 
73 2 0 0.25 0 
74 1 0.5 0.25 0 
75 1 0 0.25 0.0833333 
76 2 0.5 0.25 0.0833333 
77 2 0 0.25 0.166667 
78 1 0.5 0.25 0.166667 
79 1 0 0.25 0.25 
80 2 0.5 0.25 0.25 
81 2 0 0.25 0.333333 
82 1 0.5 0.25 0.333333 
83 1 0 0.25 0.416667 
84 2 0.5 0.25 0.416667 
85 2 0 0.25 0.5 
86 1 0.5 0.25 0.5 
87 1 0 0.25 0.583333 
88 2 0.5 0.25 0.583333 
89 2 0 0.25 0.666667 
90 1 0.5 0.25 0.666667 
91 1 0 0.25 0.75 
92 2 0.5 0.25 0.75 
93 2 0 0.25 0.833333 
94 1 0.5 0.25 0.833333 
95 1 0 0.25 0.916667 
96 2 0.5 0.25 0.916667 
97 1 0 0.333333 0 
98 2 0.5 0.333333 0 
99 2 0 0.333333 0.0833333 
100 1 0.5 0.333333 0.0833333 
101 1 0 0.333333 0.166667 
102 2 0.5 0.333333 0.166667 
103 2 0 0.333333 0.25 
104 1 0.5 0.333333 0.25 
105 1 0 0.333333 0.333333 
106 2 0.5 0.333333 0.333333 
107 2 0 0.333333 0.416667 
108 1 0.5 0.333333 0.416667 
109 1 0 0.333333 0.5 
110 2 0.5 0.333333 0.5 
111 2 0 0.333333 0.583333 
112 1 0.5 0.333333 0.583333 
113 1 0 0.333333 0.666667 
114 2 0.5 0.333333 0.666667 
115 2 0 0.333333 0.75 
116 1 0.5 0.333333 0.75 
117 1 0 0.333333 0.833333 
118 2 0.5 0.333333 0.833333 
119 2 0 0.333333 0.916667 
120 1 0.5 0.333333 0.916667 
121 2 0 0.416667 0 
122 1 0.5 0.416667 0 
123 1 0 0.416667 0.0833333 
124 2 0.5 0.416667 0.0833333 
125 2 0 0.416667 0.166667 
126 1 0.5 0.416667 0.166667 
127 1 0 0.416667 0.25 
128 2 0.5 0.416667 0.25 
129 2 0 0.416667 0.333333 
130 1 0.5 0.416667 0.333333 
131 1 0 0.416667 0.416667 
132 2 0.5 0.416667 0.416667 
133 2 0 0.416667 0.5 
134 1 0.5 0.416667 0.5 
135 1 0 0.416667 0.583333 
136 2 0.5 0.416667 0.583333 
137 2 0 0.416667 0.666667 
138 1 0.5 0.416667 0.666667 
139 1 0 0.416667 0.75 
140 2 0.5 0.416667 0.75 
141 2 0 0.416667 0.833333 
142 1 0.5 0.416667 0.833333 
143 1 0 0.416667 0.916667 
144 2 0.5 0.416667 0.916667 
145 1 0 0.5 0 
146 2 0.5 0.5 0 
147 2 0 0.5 0.0833333 
148 1 0.5 0.5 0.0833333 
149 1 0 0.5 0.166667 
150 2 0.5 0.5 0.166667 
151 2 0 0.5 0.25 
152 1 0.5 0.5 0.25 
153 1 0 0.5 0.333333 
154 2 0.5 0.5 0.333333 
155 2 0 0.5 0.416667 
156 1 0.5 0.5 0.416667 
157 1 0 0.5 0.5 
158 2 0.5 0.5 0.5 
159 2 0 0.5 0.583333 
160 1 0.5 0.5 0.583333 
161 1 0 0.5 0.666667 
162 2 0.5 0.5 0.666667 
163 2 0 0.5 0.75 
164 1 0.5 0.5 0.75 
165 1 0 0.5 0.833333 
166 2 0.5 0.5 0.833333 
167 2 0 0.5 0.916667 
168 1 0.5 0.5 0.916667 
169 2 0 0.583333 0 
170 1 0.5 0.583333 0 
171 1 0 0.583333 0.0833333 
172 2 0.5 0.583333 0.0833333 
173 2 0 0.583333 0.166667 
174 1 0.5 0.583333 0.166667 
175 1 0 0.583333 0.25 
176 2 0.5 0.583333 0.25 
177 2 0 0.583333 0.333333 
178 1 0.5 0.583333 0.333333 
179 1 0 0.583333 0.416667 
180 2 0.5 0.583333 0.416667 
181 2 0 0.583333 0.5 
182 1 0.5 0.583333 0.5 
183 1 0 0.583333 0.583333 
184 2 0.5 0.583333 0.583333 
185 2 0 0.583333 0.666667 
186 1 0.5 0.583333 0.666667 
187 1 0 0.583333 0.75 
188 2 0.5 0.583333 0.75 
189 2 0 0.583333 0.833333 
190 1 0.5 0.583333 0.833333 
191 1 0 0.583333 0.916667 
192 2 0.5 0.583333 0.916667 
193 1 0 0.666667 0 
194 2 0.5 0.666667 0 
195 2 0 0.666667 0.0833333 
196 1 0.5 0.666667 0.0833333 
197 1 0 0.666667 0.166667 
198 2 0.5 0.666667 0.166667 
199 2 0 0.666667 0.25 
200 1 0.5 0.666667 0.25 
201 1 0 0.666667 0.333333 
202 2 0.5 0.666667 0.333333 
203 2 0 0.666667 0.416667 
204 1 0.5 0.666667 0.416667 
205 1 0 0.666667 0.5 
206 2 0.5 0.666667 0.5 
207 2 0 0.666667 0.583333 
208 1 0.5 0.666667 0.583333 
209 1 0 0.666667 0.666667 
210 2 0.5 0.666667 0.666667 
211 2 0 0.666667 0.75 
212 1 0.5 0.666667 0.75 
213 1 0 0.666667 0.833333 
214 2 0.5 0.666667 0.833333 
215 2 0 0.666667 0.916667 
216 1 0.5 0.666667 0.916667 
217 2 0 0.75 0 
218 1 0.5 0.75 0 
219 1 0 0.75 0.0833333 
220 2 0.5 0.75 0.0833333 
221 2 0 0.75 0.166667 
222 1 0.5 0.75 0.166667 
223 1 0 0.75 0.25 
224 2 0.5 0.75 0.25 
225 2 0 0.75 0.333333 
226 1 0.5 0.75 0.333333 
227 1 0 0.75 0.416667 
228 2 0.5 0.75 0.416667 
229 2 0 0.75 0.5 
230 1 0.5 0.75 0.5 
231 1 0 0.75 0.583333 
232 2 0.5 0.75 0.583333 
233 2 0 0.75 0.666667 
234 1 0.5 0.75 0.666667 
235 1 0 0.75 0.75 
236 2 0.5 0.75 0.75 
237 2 0 0.75 0.833333 
238 1 0.5 0.75 0.833333 
239 1 0 0.75 0.916667 
240 2 0.5 0.75 0.916667 
241 1 0 0.833333 0 
242 2 0.5 0.833333 0 
243 2 0 0.833333 0.0833333 
244 1 0.5 0.833333 0.0833333 
245 1 0 0.833333 0.166667 
246 2 0.5 0.833333 0.166667 
247 2 0 0.833333 0.25 
248 1 0.5 0.833333 0.25 
249 1 0 0.833333 0.333333 
250 2 0.5 0.833333 0.333333 
251 2 0 0.833333 0.416667 
252 1 0.5 0.833333 0.416667 
253 1 0 0.833333 0.5 
254 2 0.5 0.833333 0.5 
255 2 0 0.833333 0.583333 
256 1 0.5 0.833333 0.583333 
257 1 0 0.833333 0.666667 
258 2 0.5 0.833333 0.666667 
259 2 0 0.833333 0.75 
260 1 0.5 0.833333 0.75 
261 1 0 0.833333 0.833333 
262 2 0.5 0.833333 0.833333 
263 2 0 0.833333 0.916667 
264 1 0.5 0.833333 0.916667 
265 2 0 0.916667 0 
266 1 0.5 0.916667 0 
267 1 0 0.916667 0.0833333 
268 2 0.5 0.916667 0.0833333 
269 2 0 0.916667 0.166667 
270 1 0.5 0.916667 0.166667 
271 1 0 0.916667 0.25 
272 2 0.5 0.916667 0.25 
273 2 0 0.916667 0.333333 
274 1 0.5 0.916667 0.333333 
275 1 0 0.916667 0.416667 
276 2 0.5 0.916667 0.416667 
277 2 0 0.916667 0.5 
278 1 0.5 0.916667 0.5 
279 1 0 0.916667 0.583333 
280 2 0.5 0.916667 0.583333 
281 2 0 0.916667 0.666667 
282 1 0.5 0.916667 0.666667 
283 1 0 0.916667 0.75 
284 2 0.5 0.916667 0.75 
285 2 0 0.916667 0.833333 
286 1 0.5 0.916667 0.833333 
287 1 0 0.916667 0.916667 
288 2 0.5 0.916667 0.916667 
ITEM: TIMESTEP
1
ITEM: NUMBER OF ATOMS
288
ITEM: BOX BOUNDS pp pp pp
0 4.212
0 25.272
0 25.272
ITEM: ATOMS id type xs ys zs 
1 1 0 0 0 
2 2 0.5 0 0 
3 2 0 0 0.0833333 
4 1 0.5 0 0.0833333 
5 1 0 0 0.166667 
6 2 0.5 0 0.166667 
7 2 0 0 0.25 
8 1 0.5 0 0.25 
9 1 0 0 0.333333 
10 2 0.5 0 0.333333 
11 2 0 0 0.416667 
12 1 0.5 0 0.416667 
13 1 0 0 0.5 
14 2 0.5 0 0.5 
15 2 0 0 0.583333 
16 1 0.5 0 0.583333 
17 1 0 0 0.666667 
18 2 0.5 0 0.666667 
19 2 0 0 0.75 
20 1 0.5 0 0.75 
21 1 0 0 0.833333 
22 2 0.5 0 0.833333 
23 2 0 0 0.916667 
24 1 0.5 0 0.916667 
25 2 0 0.0833333 0 
26 1 0.5 0.0833333 0 
27 1 0 0.0833333 0.0833333 
28 2 0.5 0.0833333 0.0833333 
29 2 0 0.0833333 0.166667 
30 1 0.5 0.0833333 0.166667 
31 1 0 0.0833333 0.25 
32 2 0.5 0.0833333 0.25 
33 2 0 0.0833333 0.333333 
34 1 0.5 0.0833333 0.333333 
35 1 0 0.0833333 0.416667 
36 2 0.5 0.0833333 0.416667 
37 2 0 0.0833333 0.5 
38 1 0.5 0.0833333 0.5 
39 1 0 0.0833333 0.583333 
40 2 0.5 0.0833333 0.583333 
41 2 0 0.0833333 0.666667 
42 1 0.5 0.0833333 0.666667 
43 1 0 0.0833333 0.75 
44 2 0.5 0.0833333 0.75 
45 2 0 0.0833333 0.833333 
46 1 0.5 0.0833333 0.833333 
47 1 0 0.0833333 0.916667 
48 2 0.5 0.0833333 0.916667 
49 1 0 0.166667 0 
50 2 0.5 0.166667 0 
51 2 0 0.166667 0.0833333 
52 1 0.5 0.166667 0.0833333 
53 1 0 0.166667 0.166667 
54 2 0.5 0.166667 0.166667 
55 2 0 0.166667 0.25 
56 1 0.5 0.166667 0.25 
57 1 0 0.166667 0.333333 
58 2 0.5 0.166667 0.333333 
59 2 0 0.166667 0.416667 
60 1 0.5 0.166667 0.416667 
61 1 0 0.166667 0.5 
62 2 0.5 0.166667 0.5 
63 2 0 0.166667 0.583333 
64 1 0.5 0.166667 0.583333 
65 1 0 0.166667 0.666667 
66 2 0.5 0.166667 0.666667 
67 2 0 0.166667 0.75 
68 1 0.5 0.166667 0.75 
69 1 0 0.166667 0.833333 
70 2 0.5 0.166667 0.833333 
71 2 0 0.166667 0.916667 
72 1 0.5 0.166667 0.916667 
73 2 0 0.25 0 
74 1 0.5 0.25 0 
75 1 0 0.25 0.0833333 
76 2 0.5 0.25 0.0833333 
77 2 0 0.25 0.166667 
78 1 0.5 0.25 0.166667 
79 1 0 0.25 0.25 
80 2 0.5 0.25 0.25 
81 2 0 0.25 0.333333 
82 1 0.5 0.25 0.333333 
83 1 0 0.25 0.416667 
84 2 0.5 0.25 0.416667 
85 2 0 0.25 0.5 
86 1 0.5 0.25 0.5 
87 1 0 0.25 0.583333 
88 2 0.5 0.25 0.583333 
89 2 0 0.25 0.666667 
90 1 0.5 0.25 0.666667 
91 1 0 0.25 0.75 
92 2 0.5 0.25 0.75 
93 2 0 0.25 0.833333 
94 1 0.5 0.25 0.833333 
95 1 0 0.25 0.916667 
96 2 0.5 0.25 0.916667 
97 1 0 0.333333 0 
98 2 0.5 0.333333 0 
99 2 0 0.333333 0.0833333 
100 1 0.5 0.333333 0.0833333 
101 1 0 0.333333 0.166667 
102 2 0.5 0.333333 0.166667 
103 2 0 0.333333 0.25 
104 1 0.5 0.333333 0.25 
105 1 0 0.333333 0.333333 
106 2 0.5 0.333333 0.333333 
107 2 0 0.333333 0.416667 
108 1 0.5 0.333333 0.416667 
109 1 0 0.333333 0.5 
110 2 0.5 0.333333 0.5 
111 2 0 0.333333 0.583333 
112 1 0.5 0.333333 0.583333 
113 1 0 0.333333 0.666667 
114 2 0.5 0.333333 0.666667 
115 2 0 0.333333 0.75 
116 1 0.5 0.333333 0.75 
117 1 0 0.333333 0.833333 
118 2 0.5 0.333333 0.833333 
119 2 0 0.333333 0.916667 
120 1 0.5 0.333333 0.916667 
121 2 0 0.416667 0 
122 1 0.5 0.416667 0 
123 1 0 0.416667 0.0833333 
124 2 0.5 0.416667 0.0833333 
125 2 0 0.416667 0.166667 
126 1 0.5 0.416667 0.166667 
127 1 0 0.416667 0.25 
128 2 0.5 0.416667 0.25 
129 2 0 0.416667 0.333333 
130 1 0.5 0.416667 0.333333 
131 1 0 0.416667 0.416667 
132 2 0.5 0.416667 0.416667 
133 2 0 0.416667 0.5 
134 1 0.5 0.416667 0.5 
135 1 0 0.416667 0.583333 
136 2 0.5 0.416667 0.583333 
137 2 0 0.416667 0.666667 
138 1 0.5 0.416667 0.666667 
139 1 0 0.416667 0.75 
140 2 0.5 0.416667 0.75 
141 2 0 0.416667 0.833333 
142 1 0.5 0.416667 0.833333 
143 1 0 0.416667 0.916667 
144 2 0.5 0.416667 0.916667 
145 1 0 0.5 0 
146 2 0.5 0.5 0 
147 2 0 0.5 0.0833333 
148 1 0.5 0.5 0.0833333 
149 1 0 0.5 0.166667 
150 2 0.5 0.5 0.166667 
151 2 0 0.5 0.25 
152 1 0.5 0.5 0.25 
153 1 0 0.5 0.333333 
154 2 0.5 0.5 0.333333 
155 2 0 0.5 0.416667 
156 1 0.5 0.5 0.416667 
157 1 0 0.5 0.5 
158 2 0.5 0.5 0.5 
159 2 0 0.5 0.583333 
160 1 0.5 0.5 0.583333 
161 1 0 0.5 0.666667 
162 2 0.5 0.5 0.666667 
163 2 0 0.5 0.75 
164 1 0.5 0.5 0.75 
165 1 0 0.5 0.833333 
166 2 0.5 0.5 0.833333 
167 2 0 0.5 0.916667 
168 1 0.5 0.5 0.916667 
169 2 0 0.583333 0 
170 1 0.5 0.583333 0 
171 1 0 0.583333 0.0833333 
172 2 0.5 0.583333 0.0833333 
173 2 0 0.583333 0.166667 
174 1 0.5 0.583333 0.166667 
175 1 0 0.583333 0.25 
176 2 0.5 0.583333 0.25 
177 2 0 0.583333 0.333333 
178 1 0.5 0.583333 0.333333 
179 1 0 0.583333 0.416667 
180 2 0.5 0.583333 0.416667 
181 2 0 0.583333 0.5 
182 1 0.5 0.583333 0.5 
183 1 0 0.583333 0.583333 
184 2 0.5 0.583333 0.583333 
185 2 0 0.583333 0.666667 
186 1 0.5 0.583333 0.666667 
187 1 0 0.583333 0.75 
188 2 0.5 0.583333 0.75 
189 2 0 0.583333 0.833333 
190 1 0.5 0.583333 0.833333 
191 1 0 0.548731 0.928607 
192 2 0.5 0.548731 0.928607 
193 1 0 0.666667 0 
194 2 0.5 0.666667 0 
195 2 0 0.666667 0.0833333 
196 1 0.5 0.666667 0.0833333 
197 1 0 0.666667 0.166667 
198 2 0.5 0.666667 0.166667 
199 2 0 0.666667 0.25 
200 1 0.5 0.666667 0.25 
201 1 0 0.666667 0.333333 
202 2 0.5 0.666667 0.333333 
203 2 0 0.666667 0.416667 
204 1 0.5 0.666667 0.416667 
205 1 0 0.666667 0.5 
206 2 0.5 0.666667 0.5 
207 2 0 0.666667 0.583333 
208 1 0.5 0.666667 0.583333 
209 1 0 0.666667 0.666667 
210 2 0.5 0.666667 0.666667 
211 2 0 0.666667 0.75 
212 1 0.5 0.666667 0.75 
213 1 0 0.666667 0.833333 
214 2 0.5 0.666667 0.833333 
215 2 0 0.666667 0.916667 
216 1 0.5 0.666667 0.916667 
217 2 0 0.75 0 
218 1 0.5 0.75 0 
219 1 0 0.75 0.0833333 
220 2 0.5 0.75 0.0833333 
221 2 0 0.75 0.166667 
222 1 0.5 0.75 0.166667 
223 1 0 0.75 0.25 
224 2 0.5 0.75 0.25 
225 2 0 0.75 0.333333 
226 1 0.5 0.75 0.333333 
227 1 0 0.75 0.416667 
228 2 0.5 0.75 0.416667 
229 2 0 0.75 0.5 
230 1 0.5 0.75 0.5 
231 1 0 0.75 0.583333 
232 2 0.5 0.75 0.583333 
233 2 0 0.75 0.666667 
234 1 0.5 0.75 0.666667 
235 1 0 0.75 0.75 
236 2 0.5 0.75 0.75 
237 2 0 0.75 0.833333 
238 1 0.5 0.75 0.833333 
239 1 0 0.75 0.916667 
240 2 0.5 0.75 0.916667 
241 1 0 0.833333 0 
242 2 0.5 0.833333 0 
243 2 0 0.833333 0.0833333 
244 1 0.5 0.833333 0.0833333 
245 1 0 0.833333 0.166667 
246 2 0.5 0.833333 0.166667 
247 2 0 0.833333 0.25 
248 1 0.5 0.833333 0.25 
249 1 0 0.833333 0.333333 
250 2 0.5 0.833333 0.333333 
251 2 0 0.833333 0.416667 
252 1 0.5 0.833333 0.416667 
253 1 0 0.833333 0.5 
254 2 0.5 0.833333 0.5 
255 2 0 0.833333 0.583333 
256 1 0.5 0.833333 0.583333 
257 1 0 0.833333 0.666667 
258 2 0.5 0.833333 0.666667 
259 2 0 0.833333 0.75 
260 1 0.5 0.833333 0.75 
261 1 0 0.833333 0.833333 
262 2 0.5 0.833333 0.833333 
263 2 0 0.833333 0.916667 
264 1 0.5 0.833333 0.916667 
265 2 0 0.916667 0 
266 1 0.5 0.916667 0 
267 1 0 0.916667 0.0833333 
268 2 0.5 0.916667 0.0833333 
269 2 0 0.916667 0.166667 
270 1 0.5 0.916667 0.166667 
271 1 0 0.916667 0.25 
272 2 0.5 0.916667 0.25 
273 2 0 0.916667 0.333333 
274 1 0.5 0.916667 0.333333 
275 1 0 0.916667 0.416667 
276 2 0.5 0.916667 0.416667 
277 2 0 0.916667 0.5 
278 1 0.5 0.916667 0.5 
279 1 0 0.916667 0.583333 
280 2 0.5 0.916667 0.583333 
281 2 0 0.916667 0.666667 
282 1 0.5 0.916667 0.666667 
283 1 0 0.916667 0.75 
284 2 0.5 0.916667 0.75 
285 2 0 0.916667 0.833333 
286 1 0.5 0.916667 0.833333 
287 1 0 0.916667 0.916667 
288 2 0.5 0.916667 0.916667 
ITEM: TIMESTEP
2
ITEM: NUMBER OF ATOMS
288
ITEM: BOX BOUNDS pp pp pp
0 4.212
0 25.272
0 25.272
ITEM: ATOMS id type xs ys zs 
1 1 0 0 0 
2 2 0.5 0 0 
3 2 0 0 0.0833333 
4 1 0.5 0 0.0833333 
5 1 0 0 0.166667 
6 2 0.5 0 0.166667 
7 2 0 0 0.25 
8 1 0.5 0 0.25 
9 1 0 0 0.333333 
10 2 0.5 0 0.333333 
11 2 0 0 0.416667 
12 1 0.5 0 0.416667 
13 1 0 0 0.5 
14 2 0.5 0 0.5 
15 2 0 0 0.583333 
16 1 0.5 0 0.583333 
17 1 0 0 0.666667 
18 2 0.5 0 0.666667 
19 2 0 0 0.75 
20 1 0.5 0 0.75 
21 1 0 0 0.833333 
22 2 0.5 0 0.833333 
23 2 0 0 0.916667 
24 1 0.5 0 0.916667 
25 2 0 0.0833333 0 
26 1 0.5 0.0833333 0 
27 1 0 0.0833333 0.0833333 
28 2 0.5 0.0833333 0.0833333 
29 2 0 0.0833333 0.166667 
30 1 0.5 0.0833333 0.166667 
31 1 0 0.0833333 0.25 
32 2 0.5 0.0833333 0.25 
33 2 0 0.0833333 0.333333 
34 1 0.5 0.0833333 0.333333 
35 1 0 0.0833333 0.416667 
36 2 0.5 0.0833333 0.416667 
37 2 0 0.0833333 0.5 
38 1 0.5 0.0833333 0.5 
39 1 0 0.0833333 0.583333 
40 2 0.5 0.0833333 0.583333 
41 2 0 0.0833333 0.666667 
42 1 0.5 0.0833333 0.666667 
43 1 0 0.0833333 0.75 
44 2 0.5 0.0833333 0.75 
45 2 0 0.07925 0.870412 
46 1 0.5 0.07925 0.870412 
47 1 0 0.0833333 0.916667 
48 2 0.5 0.0833333 0.916667 
49 1 0 0.166667 0 
50 2 0.5 0.166667 0 
51 2 0 0.166667 0.0833333 
52 1 0.5 0.166667 0.0833333 
53 1 0 0.166667 0.166667 
54 2 0.5 0.166667 0.166667 
55 2 0 0.166667 0.25 
56 1 0.5 0.166667 0.25 
57 1 0 0.166667 0.333333 
58 2 0.5 0.166667 0.333333 
59 2 0 0.166667 0.416667 
60 1 0.5 0.166667 0.416667 
61 1 0 0.166667 0.5 
62 2 0.5 0.166667 0.5 
63 2 0 0.166667 0.583333 
64 1 0.5 0.166667 0.583333 
65 1 0 0.166667 0.666667 
66 2 0.5 0.166667 0.666667 
67 2 0 0.166667 0.75 
68 1 0.5 0.166667 0.75 
69 1 0 0.166667 0.833333 
70 2 0.5 0.166667 0.833333 
71 2 0 0.166667 0.916667 
72 1 0.5 0.166667 0.916667 
73 2 0 0.25 0 
74 1 0.5 0.25 0 
75 1 0 0.25 0.0833333 
76 2 0.5 0.25 0.0833333 
77 2 0 0.25 0.166667 
78 1 0.5 0.25 0.166667 
79 1 0 0.25 0.25 
80 2 0.5 0.25 0.25 
81 2 0 0.25 0.333333 
82 1 0.5 0.25 0.333333 
83 1 0 0.25 0.416667 
84 2 0.5 0.25 0.416667 
85 2 0 0.25 0.5 
86 1 0.5 0.25 0.5 
87 1 0 0.25 0.583333 
88 2 0.5 0.25 0.583333 
89 2 0 0.25 0.666667 
90 1 0.5 0.25 0.666667 
91 1 0 0.25 0.75 
92 2 0.5 0.25 0.75 
93 2 0 0.25 0.833333 
94 1 0.5 0.25 0.833333 
95 1 0 0.25 0.916667 
96 2 0.5 0.25 0.916667 
97 1 0 0.333333 0 
98 2 0.5 0.333333 0 
99 2 0 0.333333 0.0833333 
100 1 0.5 0.333333 0.0833333 
101 1 0 0.333333 0.166667 
102 2 0.5 0.333333 0.166667 
103 2 0 0.333333 0.25 
104 1 0.5 0.333333 0.25 
105 1 0 0.333333 0.333333 
106 2 0.5 0.333333 0.333333 
107 2 0 0.333333 0.416667 
108 1 0.5 0.333333 0.416667 
109 1 0 0.333333 0.5 
110 2 0.5 0.333333 0.5 
111 2 0 0.333333 0.583333 
112 1 0.5 0.333333 0.583333 
113 1 0 0.333333 0.666667 
114 2 0.5 0.333333 0.666667 
115 2 0 0.333333 0.75 
116 1 0.5 0.333333 0.75 
117 1 0 0.333333 0.833333 
118 2 0.5 0.333333 0.833333 
119 2 0 0.333333 0.916667 
120 1 0.5 0.333333 0.916667 
121 2 0 0.416667 0 
122 1 0.5 0.416667 0 
123 1 0 0.416667 0.0833333 
124 2 0.5 0.416667 0.0833333 
125 2 0 0.416667 0.166667 
126 1 0.5 0.416667 0.166667 
127 1 0 0.416667 0.25 
128 2 0.5 0.416667 0.25 
129 2 0 0.416667 0.333333 
130 1 0.5 0.416667 0.333333 
131 1 0 0.416667 0.416667 
132 2 0.5 0.416667 0.416667 
133 2 0 0.416667 0.5 
134 1 0.5 0.416667 0.5 
135 1 0 0.416667 0.583333 
136 2 0.5 0.416667 0.583333 
137 2 0 0.416667 0.666667 
138 1 0.5 0.416667 0.666667 
139 1 0 0.416667 0.75 
140 2 0.5 0.416667 0.75 
141 2 0 0.416667 0.833333 
142 1 0.5 0.416667 0.833333 
143 1 0 0.416667 0.916667 
144 2 0.5 0.416667 0.916667 
145 1 0 0.5 0 
146 2 0.5 0.5 0 
147 2 0 0.5 0.0833333 
148 1 0.5 0.5 0.0833333 
149 1 0 0.5 0.166667 
150 2 0.5 0.5 0.166667 
151 2 0 0.5 0.25 
152 1 0.5 0.5 0.25 
153 1 0 0.5 0.333333 
154 2 0.5 0.5 0.333333 
155 2 0 0.5 0.416667 
156 1 0.5 0.5 0.416667 
157 1 0 0.5 0.5 
158 2 0.5 0.5 0.5 
159 2 0 0.5 0.583333 
160 1 0.5 0.5 0.583333 
161 1 0 0.5 0.666667 
162 2 0.5 0.5 0.666667 
163 2 0 0.5 0.75 
164 1 0.5 0.5 0.75 
165 1 0 0.5 0.833333 
166 2 0.5 0.5 0.833333 
167 2 0 0.5 0.916667 
168 1 0.5 0.5 0.916667 
169 2 0 0.583333 0 
170 1 0.5 0.583333 0 
171 1 0 0.583333 0.0833333 
172 2 0.5 0.583333 0.0833333 
173 2 0 0.583333 0.166667 
174 1 0.5 0.583333 0.166667 
175 1 0 0.583333 0.25 
176 2 0.5 0.583333 0.25 
177 2 0 0.583333 0.333333 
178 1 0.5 0.583333 0.333333 
179 1 0 0.583333 0.416667 
180 2 0.5 0.583333 0.416667 
181 2 0 0.583333 0.5 
182 1 0.5 0.583333 0.5 
183 1 0 0.583333 0.583333 
184 2 0.5 0.583333 0.583333 
185 2 0 0.583333 0.666667 
186 1 0.5 0.583333 0.666667 
187 1 0 0.583333 0.75 
188 2 0.5 0.583333 0.75 
189 2 0 0.583333 0.833333 
190 1 0.5 0.583333 0.833333 
191 1 0 0.583333 0.916667 
192 2 0.5 0.583333 0.916667 
193 1 0 0.666667 0 
194 2 0.5 0.666667 0 
195 2 0 0.666667 0.0833333 
196 1 0.5 0.666667 0.0833333 
197 1 0 0.666667 0.166667 
198 2 0.5 0.666667 0.166667 
199 2 0 0.666667 0.25 
200 1 0.5 0.666667 0.25 
201 1 0 0.666667 0.333333 
202 2 0.5 0.666667 0.333333 
203 2 0 0.666667 0.416667 
204 1 0.5 0.666667 0.416667 
205 1 0 0.666667 0.5 
206 2 0.5 0.666667 0.5 
207 2 0 0.666667 0.583333 
208 1 0.5 0.666667 0.583333 
209 1 0 0.666667 0.666667 
210 2 0.5 0.666667 0.666667 
211 2 0 0.666667 0.75 
212 1 0.5 0.666667 0.75 
213 1 0 0.666667 0.833333 
214 2 0.5 0.666667 0.833333 
215 2 0 0.666667 0.916667 
216 1 0.5 0.666667 0.916667 
217 2 0 0.75 0 
218 1 0.5 0.75 0 
219 1 0 0.75 0.0833333 
220 2 0.5 0.75 0.0833333 
221 2 0 0.75 0.166667 
222 1 0.5 0.75 0.166667 
223 1 0 0.75 0.25 
224 2 0.5 0.75 0.25 
225 2 0 0.75 0.333333 
226 1 0.5 0.75 0.333333 
227 1 0 0.75 0.416667 
228 2 0.5 0.75 0.416667 
229 2 0 0.75 0.5 
230 1 0.5 0.75 0.5 
231 1 0 0.75 0.583333 
232 2 0.5 0.75 0.583333 
233 2 0 0.75 0.666667 
234 1 0.5 0.75 0.666667 
235 1 0 0.75 0.75 
236 2 0.5 0.75 0.75 
237 2 0 0.75 0.833333 
238 1 0.5 0.75 0.833333 
239 1 0 0.75 0.916667 
240 2 0.5 0.75 0.916667 
241 1 0 0.833333 0 
242 2 0.5 0.833333 0 
243 2 0 0.833333 0.0833333 
244 1 0.5 0.833333 0.0833333 
245 1 0 0.833333 0.166667 
246 2 0.5 0.833333 0.166667 
247 2 0 0.833333 0.25 
248 1 0.5 0.833333 0.25 
249 1 0 0.833333 0.333333 
250 2 0.5 0.833333 0.333333 
251 2 0 0.833333 0.416667 
252 1 0.5 0.833333 0.416667 
253 1 0 0.833333 0.5 
254 2 0.5 0.833333 0.5 
255 2 0 0.833333 0.583333 
256 1 0.5 0.833333 0.583333 
257 1 0 0.833333 0.666667 
258 2 0.5 0.833333 0.666667 
259 2 0 0.833333 0.75 
260 1 0.5 0.833333 0.75 
261 1 0 0.833333 0.833333 
262 2 0.5 0.833333 0.833333 
263 2 0 0.833333 0.916667 
264 1 0.5 0.833333 0.916667 
265 2 0 0.916667 0 
266 1 0.5 0.916667 0 
267 1 0 0.916667 0.0833333 
268 2 0.5 0.916667 0.0833333 
269 2 0 0.916667 0.166667 
270 1 0.5 0.916667 0.166667 
271 1 0 0.916667 0.25 
272 2 0.5 0.916667 0.25 
273 2 0 0.916667 0.333333 
274 1 0.5 0.916667 0.333333 
275 1 0 0.916667 0.416667 
276 2 0.5 0.916667 0.416667 
277 2 0 0.916667 0.5 
278 1 0.5 0.916667 0.5 
279 1 0 0.916667 0.583333 
280 2 0.5 0.916667 0.583333 
281 2 0 0.916667 0.666667 
282 1 0.5 0.916667 0.666667 
283 1 0 0.916667 0.75 
284 2 0.5 0.916667 0.75 
285 2 0 0.916667 0.833333 
286 1 0.5 0.916667 0.833333 
287 1 0 0.916667 0.916667 
288 2 0.5 0.916667 0.916667 
ITEM: TIMESTEP
3
ITEM: NUMBER OF ATOMS
288
ITEM: BOX BOUNDS pp pp pp
0 4.212
0 25.272
0 25.272
ITEM: ATOMS id type xs ys zs 
1 1 0 0 0 
2 2 0.5 0 0 
3 2 0 0 0.0833333 
4 1 0.5 0 0.0833333 
5 1 0 0 0.166667 
6 2 0.5 0 0.166667 
7 2 0 0 0.25 
8 1 0.5 0 0.25 
9 1 0 0 0.333333 
10 2 0.5 0 0.333333 
11 2 0 0 0.416667 
12 1 0.5 0 0.416667 
13 1 0 0 0.5 
14 2 0.5 0 0.5 
15 2 0 0 0.583333 
16 1 0.5 0 0.583333 
17 1 0 0 0.666667 
18 2 0.5 0 0.666667 
19 2 0 0 0.75 
20 1 0.5 0 0.75 
21 1 0 0 0.833333 
22 2 0.5 0 0.833333 
23 2 0 0 0.916667 
24 1 0.5 0 0.916667 
25 2 0 0.0833333 0 
26 1 0.5 0.0833333 0 
27 1 0 0.0833333 0.0833333 
28 2 0.5 0.0833333 0.0833333 
29 2 0 0.0833333 0.166667 
30 1 0.5 0.0833333 0.166667 
31 1 0 0.0833333 0.25 
32 2 0.5 0.0833333 0.25 
33 2 0 0.0833333 0.333333 
34 1 0.5 0.0833333 0.333333 
35 1 0 0.0833333 0.416667 
36 2 0.5 0.0833333 0.416667 
37 2 0 0.0833333 0.5 
38 1 0.5 0.0833333 0.5 
39 1 0 0.0833333 0.583333 
40 2 0.5 0.0833333 0.583333 
41 2 0 0.0833333 0.666667 
42 1 0.5 0.0833333 0.666667 
43 1 0 0.0833333 0.75 
44 2 0.5 0.0833333 0.75 
45 2 0 0.0833333 0.833333 
46 1 0.5 0.0833333 0.833333 
47 1 0 0.0833333 0.916667 
48 2 0.5 0.0833333 0.916667 
49 1 0 0.166667 0 
50 2 0.5 0.166667 0 
51 2 0 0.166667 0.0833333 
52 1 0.5 0.166667 0.0833333 
53 1 0 0.166667 0.166667 
54 2 0.5 0.166667 0.166667 
55 2 0 0.166667 0.25 
56 1 0.5 0.166667 0.25 
57 1 0 0.166667 0.333333 
58 2 0.5 0.166667 0.333333 
59 2 0 0.166667 0.416667 
60 1 0.5 0.166667 0.416667 
61 1 0 0.166667 0.5 
62 2 0.5 0.166667 0.5 
63 2 0 0.166667 0.583333 
64 1 0.5 0.166667 0.583333 
65 1 0 0.166667 0.666667 
66 2 0.5 0.166667 0.666667 
67 2 0 0.166667 0.75 
68 1 0.5 0.166667 0.75 
69 1 0 0.166667 0.833333 
70 2 0.5 0.166667 0.833333 
71 2 0 0.166667 0.916667 
72 1 0.5 0.166667 0.916667 
73 2 0 0.25 0 
74 1 0.5 0.25 0 
75 1 0 0.25 0.0833333 
76 2 0.5 0.25 0.0833333 
77 2 0 0.25 0.166667 
78 1 0.5 0.25 0.166667 
79 1 0 0.25 0.25 
80 2 0.5 0.25 0.25 
81 2 0 0.25 0.333333 
82 1 0.5 0.25 0.333333 
83 1 0 0.25 0.416667 
84 2 0.5 0.25 0.416667 
85 2 0 0.25 0.5 
86 1 0.5 0.25 0.5 
87 1 0 0.25 0.583333 
88 2 0.5 0.25 0.583333 
89 2 0 0.25 0.666667 
90 1 0.5 0.25 0.666667 
91 1 0 0.25 0.75 
92 2 0.5 0.25 0.75 
93 2 0 0.25 0.833333 
94 1 0.5 0.25 0.833333 
95 1 0 0.25 0.916667 
96 2 0.5 0.25 0.916667 
97 1 0 0.333333 0 
98 2 0.5 0.333333 0 
99 2 0 0.333333 0.0833333 
100 1 0.5 0.333333 0.0833333 
101 1 0 0.333333 0.166667 
102 2 0.5 0.333333 0.166667 
103 2 0 0.333333 0.25 
104 1 0.5 0.333333 0.25 
105 1 0 0.333333 0.333333 
106 2 0.5 0.333333 0.333333 
107 2 0 0.333333 0.416667 
108 1 0.5 0.333333 0.416667 
109 1 0 0.333333 0.5 
110 2 0.5 0.333333 0.5 
111 2 0 0.333333 0.583333 
112 1 0.5 0.333333 0.583333 
113 1 0 0.333333 0.666667 
114 2 0.5 0.333333 0.666667 
115 2 0 0.333333 0.75 
116 1 0.5 0.333333 0.75 
117 1 0 0.333333 0.833333 
118 2 0.5 0.333333 0.833333 
119 2 0 0.333333 0.916667 
120 1 0.5 0.333333 0.916667 
121 2 0 0.416667 0 
122 1 0.5 0.416667 0 
123 1 0 0.416667 0.0833333 
124 2 0.5 0.416667 0.0833333 
125 2 0 0.416667 0.166667 
126 1 0.5 0.416667 0.166667 
127 1 0 0.416667 0.25 
128 2 0.5 0.416667 0.25 
129 2 0 0.416667 0.333333 
130 1 0.5 0.416667 0.333333 
131 1 0 0.416667 0.416667 
132 2 0.5 0.416667 0.416667 
133 2 0 0.416667 0.5 
134 1 0.5 0.416667 0.5 
135 1 0 0.416667 0.583333 
136 2 0.5 0.416667 0.583333 
137 2 0 0.416667 0.666667 
138 1 0.5 0.416667 0.666667 
139 1 0 0.416667 0.75 
140 2 0.5 0.416667 0.75 
141 2 0 0.416667 0.833333 
142 1 0.5 0.416667 0.833333 
143 1 0 0.416667 0.916667 
144 2 0.5 0.416667 0.916667 
145 1 0 0.5 0 
146 2 0.5 0.5 0 
147 2 0 0.481083 0.100045 
148 1 0.5 0.481083 0.100045 
149 1 0 0.5 0.166667 
150 2 0.5 0.5 0.166667 
151 2 0 0.5 0.25 
152 1 0.5 0.5 0.25 
153 1 0 0.5 0.333333 
154 2 0.5 0.5 0.333333 
155 2 0 0.5 0.416667 
156 1 0.5 0.5 0.416667 
157 1 0 0.5 0.5 
158 2 0.5 0.5 0.5 
159 2 0 0.5 0.583333 
160 1 0.5 0.5 0.583333 
161 1 0 0.5 0.666667 
162 2 0.5 0.5 0.666667 
163 2 0 0.5 0.75 
164 1 0.5 0.5 0.75 
165 1 0 0.5 0.833333 
166 2 0.5 0.5 0.833333 
167 2 0 0.5 0.916667 
168 1 0.5 0.5 0.916667 
169 2 0 0.583333 0 
170 1 0.5 0.583333 0 
171 1 0 0.583333 0.0833333 
172 2 0.5 0.583333 0.0833333 
173 2 0 0.583333 0.166667 
174 1 0.5 0.583333 0.166667 
175 1 0 0.583333 0.25 
176 2 0.5 0.583333 0.25 
177 2 0 0.583333 0.333333 
178 1 0.5 0.583333 0.333333 
179 1 0 0.583333 0.416667 
180 2 0.5 0.583333 0.416667 
181 2 0 0.583333 0.5 
182 1 0.5 0.583333 0.5 
183 1 0 0.583333 0.583333 
184 2 0.5 0.583333 0.583333 
185 2 0 0.583333 0.666667 
186 1 0.5 0.583333 0.666667 
187 1 0 0.583333 0.75 
188 2 0.5 0.583333 0.75 
189 2 0 0.583333 0.833333 
190 1 0.5 0.583333 0.833333 
191 1 0 0.583333 0.916667 
192 2 0.5 0.583333 0.916667 
193 1 0 0.666667 0 
194 2 0.5 0.666667 0 
195 2 0 0.666667 0.0833333 
196 1 0.5 0.666667 0.0833333 
197 1 0 0.666667 0.166667 
198 2 0.5 0.666667 0.166667 
199 2 0 0.666667 0.25 
200 1 0.5 0.666667 0.25 
201 1 0 0.666667 0.333333 
202 2 0.5 0.666667 0.333333 
203 2 0 0.666667 0.416667 
204 1 0.5 0.666667 0.416667 
205 1 0 0.666667 0.5 
206 2 0.5 0.666667 0.5 
207 2 0 0.666667 0.583333 
208 1 0.5 0.666667 0.583333 
209 1 0 0.666667 0.666667 
210 2 0.5 0.666667 0.666667 
211 2 0 0.666667 0.75 
212 1 0.5 0.666667 0.75 
213 1 0 0.666667 0.833333 
214 2 0.5 0.666667 0.833333 
215 2 0 0.666667 0.916667 
216 1 0.5 0.666667 0.916667 
217 2 0 0.75 0 
218 1 0.5 0.75 0 
219 1 0 0.75 0.0833333 
220 2 0.5 0.75 0.0833333 
221 2 0 0.75 0.166667 
222 1 0.5 0.75 0.166667 
223 1 0 0.75 0.25 
224 2 0.5 0.75 0.25 
225 2 0 0.75 0.333333 
226 1 0.5 0.75 0.333333 
227 1 0 0.75 0.416667 
228 2 0.5 0.75 0.416667 
229 2 0 0.75 0.5 
230 1 0.5 0.75 0.5 
231 1 0 0.75 0.583333 
232 2 0.5 0.75 0.583333 
233 2 0 0.75 0.666667 
234 1 0.5 0.75 0.666667 
235 1 0 0.75 0.75 
236 2 0.5 0.75 0.75 
237 2 0 0.75 0.833333 
238 1 0.5 0.75 0.833333 
239 1 0 0.75 0.916667 
240 2 0.5 0.75 0.916667 
241 1 0 0.833333 0 
242 2 0.5 0.833333 0 
243 2 0 0.833333 0.0833333 
244 1 0.5 0.833333 0.0833333 
245 1 0 0.833333 0.166667 
246 2 0.5 0.833333 0.166667 
247 2 0 0.833333 0.25 
248 1 0.5 0.833333 0.25 
249 1 0 0.833333 0.333333 
250 2 0.5 0.833333 0.333333 
251 2 0 0.833333 0.416667 
252 1 0.5 0.833333 0.416667 
253 1 0 0.833333 0.5 
254 2 0.5 0.833333 0.5 
255 2 0 0.833333 0.583333 
256 1 0.5 0.833333 0.583333 
257 1 0 0.833333 0.666667 
258 2 0.5 0.833333 0.666667 
259 2 0 0.833333 0.75 
260 1 0.5 0.833333 0.75 
261 1 0 0.833333 0.833333 
262 2 0.5 0.833333 0.833333 
263 2 0 0.833333 0.916667 
264 1 0.5 0.833333 0.916667 
265 2 0 0.916667 0 
266 1 0.5 0.916667 0 
267 1 0 0.916667 0.0833333 
268 2 0.5 0.916667 0.0833333 
269 2 0 0.916667 0.166667 
270 1 0.5 0.916667 0.166667 
271 1 0 0.916667 0.25 
272 2 0.5 0.916667 0.25 
273 2 0 0.916667 0.333333 
274 1 0.5 0.916667 0.333333 
275 1 0 0.916667 0.416667 
276 2 0.5 0.916667 0.416667 
277 2 0 0.916667 0.5 
278 1 0.5 0.916667 0.5 
279 1 0 0.916667 0.583333 
280 2 0.5 0.916667 0.583333 
281 2 0 0.916667 0.666667 
282 1 0.5 0.916667 0.666667 
283 1 0 0.916667 0.75 
284 2 0.5 0.916667 0.75 
285 2 0 0.916667 0.833333 
286 1 0.5 0.916667 0.833333 
287 1 0 0.916667 0.916667 
288 2 0.5 0.916667 0.916667 
ITEM: TIMESTEP
4
ITEM: NUMBER OF ATOMS
288
ITEM: BOX BOUNDS pp pp pp
0 4.212
0 25.272
0 25.272
ITEM: ATOMS id type xs ys zs 
1 1 0 0 0 
2 2 0.5 0 0 
3 2 0 0 0.0833333 
4 1 0.5 0 0.0833333 
5 1 0 0 0.166667 
6 2 0.5 0 0.166667 
7 2 0 0 0.25 
8 1 0.5 0 0.25 
9 1 0 0 0.333333 
10 2 0.5 0 0.333333 
11 2 0 0 0.416667 
12 1 0.5 0 0.416667 
13 1 0 0 0.5 
14 2 0.5 0 0.5 
15 2 0 0 0.583333 
16 1 0.5 0 0.583333 
17 1 0 0 0.666667 
18 2 0.5 0 0.666667 
19 2 0 0 0.75 
20 1 0.5 0 0.75 
21 1 0 0 0.833333 
22 2 0.5 0 0.833333 
23 2 0 0 0.916667 
24 1 0.5 0 0.916667 
25 2 0 0.0833333 0 
26 1 0.5 0.0833333 0 
27 1 0 0.0833333 0.0833333 
28 2 0.5 0.0833333 0.0833333 
29 2 0 0.0833333 0.166667 
30 1 0.5 0.0833333 0.166667 
31 1 0 0.0833333 0.25 
32 2 0.5 0.0833333 0.25 
33 2 0 0.0833333 0.333333 
34 1 0.5 0.0833333 0.333333 
35 1 0 0.0833333 0.416667 
36 2 0.5 0.0833333 0.416667 
37 2 0 0.0833333 0.5 
38 1 0.5 0.0833333 0.5 
39 1 0 0.0833333 0.583333 
40 2 0.5 0.0833333 0.583333 
41 2 0 0.0833333 0.666667 
42 1 0.5 0.0833333 0.666667 
43 1 0 0.0833333 0.75 
44 2 0.5 0.0833333 0.75 
45 2 0 0.0833333 0.833333 
46 1 0.5 0.0833333 0.833333 
47 1 0 0.0833333 0.916667 
48 2 0.5 0.0833333 0.916667 
49 1 0 0.134885 0.98627 
50 2 0.5 0.134885 0.98627 
51 2 0 0.166667 0.0833333 
52 1 0.5 0.166667 0.0833333 