ITEM: TIMESTEP
0
ITEM: NUMBER OF ATOMS
8
ITEM: BOX BOUNDS xy xz yz pp pp pp
0 4.15 7.44882e-09
0 4.15 7.44882e-09
0 4.15 7.44882e-09
ITEM: ATOMS id type xs ys zs 
1 1 0 0 0 
2 1 0.5 0.5 0 
3 1 0.5 0 0.5 
4 1 6.20385e-25 0.5 0.5 
5 2 0.5 0 0 
6 2 2.06795e-25 0.5 0 
7 2 2.06795e-25 0 0.5 
8 2 0.5 0.5 0.5 
ITEM: TIMESTEP
1
ITEM: NUMBER OF ATOMS
8
ITEM: BOX BOUNDS xy xz yz pp pp pp
-0.0002075 4.15021 7.43782e-09
-0.0002075 4.15021 7.43782e-09
-0.0002075 4.15021 7.43782e-09
ITEM: ATOMS id type xs ys zs 
1 1 -1.30614e-20 -1.30614e-20 -1.30614e-20 
2 1 0.5 0.5 0 
3 1 0.5 -1.01502e-20 0.5 
4 1 -5.58201e-20 0.5 0.5 
5 2 0.5 -1.30614e-20 -6.53069e-21 
6 2 -2.42596e-20 0.5 0 
7 2 -3.15611e-20 -1.66809e-20 0.5 
8 2 0.5 0.5 0.5 
ITEM: TIMESTEP
2
ITEM: NUMBER OF ATOMS
8
ITEM: BOX BOUNDS xy xz yz pp pp pp
-0.000415 4.15042 7.42675e-09
-0.000415 4.15042 7.42675e-09
-0.000415 4.15042 7.42675e-09
ITEM: ATOMS id type xs ys zs 
1 1 -5.22403e-20 -2.61201e-20 -2.61201e-20 
2 1 0.5 0.5 0 
3 1 0.5 -4.60504e-20 0.5 
4 1 -1.57726e-19 0.5 0.5 
5 2 0.5 -1.30601e-20 -2.61201e-20 
6 2 -7.79155e-20 0.5 -1.30601e-20 
7 2 -5.36914e-20 -5.91104e-20 0.5 
8 2 0.5 0.5 0.5 
ITEM: TIMESTEP
3
ITEM: NUMBER OF ATOMS
8
ITEM: BOX BOUNDS xy xz yz pp pp pp
-0.0006225 4.15062 7.41561e-09
-0.0006225 4.15062 7.41561e-09
-0.0006225 4.15062 7.41561e-09
ITEM: ATOMS id type xs ys zs 
1 1 -7.83526e-20 -4.66553e-29 2.61175e-20 
2 1 0.5 0.5 2.61175e-20 
3 1 0.5 -3.78711e-20 0.5 
4 1 -2.07028e-19 0.5 0.5 
5 2 0.5 -2.61175e-20 0 
6 2 -9.47415e-20 0.5 0 
7 2 -6.00521e-20 -6.39886e-20 0.5 
8 2 0.5 0.5 0.5 
ITEM: TIMESTEP
4
ITEM: NUMBER OF ATOMS
8
ITEM: BOX BOUNDS xy xz yz pp pp pp
-0.00083 4.15083 7.40441e-09
-0.00083 4.15083 7.40441e-09
-0.00083 4.15083 7.40441e-09
ITEM: ATOMS id type xs ys zs 
1 1 -1.0446e-19 -4.65755e-29 2.61149e-20 
2 1 0.5 0.5 2.61149e-20 
3 1 0.5 -6.74431e-20 0.5 
4 1 -2.75578e-19 0.5 0.5 
5 2 0.5 -5.22298e-20 0 
6 2 -1.49122e-19 0.5 0 
7 2 -1.00342e-19 -9.3558e-20 0.5 
8 2 0.5 0.5 0.5 
ITEM: TIMESTEP
5
ITEM: NUMBER OF ATOMS
8
ITEM: BOX BOUNDS xy xz yz pp pp pp
-0.0010375 4.15104 7.39315e-09
-0.0010375 4.15104 7.39315e-09
-0.0010375 4.15104 7.39315e-09
ITEM: ATOMS id type xs ys zs 
1 1 -1.56674e-19 -5.22246e-20 5.22246e-20 
2 1 0.5 0.5 5.22246e-20 
3 1 0.5 -5.47584e-20 0.5 
4 1 -3.34216e-19 0.5 0.5 
5 2 0.5 -1.04449e-19 0 
6 2 -1.44036e-19 0.5 0 
7 2 -8.57312e-20 -1.06983e-19 0.5 
8 2 0.5 0.5 0.5 
ITEM: TIMESTEP
6
ITEM: NUMBER OF ATOMS
8
ITEM: BOX BOUNDS xy xz yz pp pp pp
-0.001245 4.15125 7.38182e-09
-0.001245 4.15125 7.38182e-09
-0.001245 4.15125 7.38182e-09
ITEM: ATOMS id type xs ys zs 
1 1 -2.08878e-19 -1.04439e-19 5.22194e-20 
2 1 0.5 0.5 5.22194e-20 
3 1 0.5 -1.20296e-19 0.5 
4 1 -3.91061e-19 0.5 0.5 
5 2 0.5 -1.56658e-19 0 
6 2 -1.50572e-19 0.5 0 
7 2 -8.38312e-20 -1.20296e-19 0.5 
8 2 0.5 0.5 0.5 
ITEM: TIMESTEP
7
ITEM: NUMBER OF ATOMS
8
ITEM: BOX BOUNDS xy xz yz pp pp pp
-0.0014525 4.15145 7.37042e-09
-0.0014525 4.15145 7.37042e-09
-0.0014525 4.15145 7.37042e-09
ITEM: ATOMS id type xs ys zs 
1 1 -2.61071e-19 -1.04428e-19 5.22142e-20 
2 1 0.5 0.5 5.22142e-20 
3 1 0.5 -1.21161e-19 0.5 
4 1 -4.36586e-19 0.5 0.5 
5 2 0.5 -1.56642e-19 0 
6 2 -1.9262e-19 0.5 0 
7 2 -1.39538e-19 -1.21161e-19 0.5 
8 2 0.5 0.5 0.5 
ITEM: TIMESTEP
8
ITEM: NUMBER OF ATOMS
8
ITEM: BOX BOUNDS xy xz yz pp pp pp
-0.00166 4.15166 7.35896e-09
-0.00166 4.15166 7.35896e-09
-0.00166 4.15166 7.35896e-09
ITEM: ATOMS id type xs ys zs 
1 1 -3.13254e-19 -1.04418e-19 5.22089e-20 
2 1 0.5 0.5 5.22089e-20 
3 1 0.5 -1.46113e-19 0.5 
4 1 -4.98983e-19 0.5 0.5 
5 2 0.5 -1.56627e-19 0 
6 2 -1.81097e-19 0.5 -5.22089e-20 
7 2 -1.61259e-19 -1.46113e-19 0.5 
8 2 0.5 0.5 0.5 
ITEM: TIMESTEP
9
ITEM: NUMBER OF ATOMS
8
ITEM: BOX BOUNDS xy xz yz pp pp pp
-0.0018675 4.15187 7.34743e-09
-0.0018675 4.15187 7.34743e-09
-0.0018675 4.15187 7.34743e-09
ITEM: ATOMS id type xs ys zs 
1 1 -4.1763e-19 -1.56611e-19 5.22037e-20 
2 1 0.5 0.5 5.22037e-20 
3 1 0.5 -2.54196e-19 0.5 
4 1 -5.79101e-19 0.5 0.5 
5 2 0.5 -2.08815e-19 -5.22037e-20 
6 2 -1.59294e-19 0.5 -1.04407e-19 
7 2 -1.58789e-19 -2.54196e-19 0.5 
8 2 0.5 0.5 0.5 
ITEM: TIMESTEP
10
ITEM: NUMBER OF ATOMS
8
ITEM: BOX BOUNDS xy xz yz pp pp pp
-0.002075 4.15208 7.33582e-09
-0.002075 4.15208 7.33582e-09
-0.002075 4.15208 7.33582e-09
ITEM: ATOMS id type xs ys zs 
1 1 -5.21985e-19 -3.13191e-19 1.04397e-19 
2 1 0.5 0.5 1.04397e-19 
3 1 0.5 -4.0552e-19 0.5 
4 1 -8.15645e-19 0.5 0.5 
5 2 0.5 -3.13191e-19 -1.04397e-19 
6 2 -3.01123e-19 0.5 -1.04397e-19 
7 2 -3.05728e-19 -4.0552e-19 0.5 
8 2 0.5 0.5 0.5 
ITEM: TIMESTEP
11
ITEM: NUMBER OF ATOMS
8
ITEM: BOX BOUNDS xy xz yz pp pp pp
-0.0022825 4.15228 7.32415e-09
-0.0022825 4.15228 7.32415e-09
-0.0022825 4.15228 7.32415e-09
ITEM: ATOMS id type xs ys zs 
1 1 -6.2632e-19 -4.17546e-19 1.04387e-19 
2 1 0.5 0.5 1.04387e-19 
3 1 0.5 -5.45058e-19 0.5 
4 1 -9.75752e-19 0.5 0.5 
5 2 0.5 -4.17546e-19 -1.04387e-19 
6 2 -4.49948e-19 0.5 -1.04387e-19 
7 2 -4.21418e-19 -5.45058e-19 0.5 
8 2 0.5 0.5 0.5 
ITEM: TIMESTEP
12
ITEM: NUMBER OF ATOMS
8
ITEM: BOX BOUNDS xy xz yz pp pp pp
-0.00249 4.15249 7.31241e-09
-0.00249 4.15249 7.31241e-09
-0.00249 4.15249 7.31241e-09
ITEM: ATOMS id type xs ys zs 
1 1 -7.30633e-19 -5.21881e-19 0 
2 1 0.5 0.5 1.04376e-19 
3 1 0.5 -6.71574e-19 0.5 
4 1 -1.14591e-18 0.5 0.5 
5 2 0.5 -5.21881e-19 -2.08752e-19 
6 2 -5.30851e-19 0.5 -2.08752e-19 
7 2 -5.10687e-19 -6.71574e-19 0.5 
8 2 0.5 0.5 0.5 
ITEM: TIMESTEP
13
ITEM: NUMBER OF ATOMS
8
ITEM: BOX BOUNDS xy xz yz pp pp pp
-0.0026975 4.1527 7.30059e-09
-0.0026975 4.1527 7.30059e-09
-0.0026975 4.1527 7.30059e-09
ITEM: ATOMS id type xs ys zs 
1 1 -8.34926e-19 -5.21829e-19 0 
2 1 0.5 0.5 1.04366e-19 
3 1 0.5 -7.51352e-19 0.5 
4 1 -1.23887e-18 0.5 0.5 
5 2 0.5 -5.21829e-19 -2.08731e-19 
6 2 -6.20009e-19 0.5 -2.08731e-19 
7 2 -6.18863e-19 -7.51352e-19 0.5 
8 2 0.5 0.5 0.5 
ITEM: TIMESTEP
14
ITEM: NUMBER OF ATOMS
8
ITEM: BOX BOUNDS xy xz yz pp pp pp
-0.002905 4.15291 7.2887e-09
-0.002905 4.15291 7.2887e-09
-0.002905 4.15291 7.2887e-09
ITEM: ATOMS id type xs ys zs 
1 1 -1.04355e-18 -6.26132e-19 -1.04355e-19 
2 1 0.5 0.5 0 
3 1 0.5 -8.83603e-19 0.5 
4 1 -1.46327e-18 0.5 0.5 
5 2 0.5 -6.26132e-19 -3.13066e-19 
6 2 -7.59667e-19 0.5 -3.13066e-19 
7 2 -7.03608e-19 -8.83603e-19 0.5 
8 2 0.5 0.5 0.5 
ITEM: TIMESTEP
15
ITEM: NUMBER OF ATOMS
8
ITEM: BOX BOUNDS xy xz yz pp pp pp
-0.0031125 4.15311 7.27674e-09
-0.0031125 4.15311 7.27674e-09
-0.0031125 4.15311 7.27674e-09
ITEM: ATOMS id type xs ys zs 
1 1 -1.25214e-18 -7.30414e-19 -1.04345e-19 
2 1 0.5 0.5 0 
3 1 0.5 -9.85836e-19 0.5 
4 1 -1.69753e-18 0.5 0.5 
5 2 0.5 -7.30414e-19 -3.13035e-19 
6 2 -8.43277e-19 0.5 -3.13035e-19 
7 2 -8.54249e-19 -9.85836e-19 0.5 
8 2 0.5 0.5 0.5 
ITEM: TIMESTEP
16
ITEM: NUMBER OF ATOMS
8
ITEM: BOX BOUNDS xy xz yz pp pp pp
-0.00332 4.15332 7.2647e-09
-0.00332 4.15332 7.2647e-09
-0.00332 4.15332 7.2647e-09
ITEM: ATOMS id type xs ys zs 
1 1 -1.35635e-18 -8.34676e-19 -1.04334e-19 
2 1 0.5 0.5 0 
3 1 0.5 -1.14176e-18 0.5 
4 1 -1.85477e-18 0.5 0.5 
5 2 0.5 -7.30341e-19 -3.13003e-19 
6 2 -9.12748e-19 0.5 -3.13003e-19 
7 2 -9.42025e-19 -1.14176e-18 0.5 
8 2 0.5 0.5 0.5 
ITEM: TIMESTEP
17
ITEM: NUMBER OF ATOMS
8
ITEM: BOX BOUNDS xy xz yz pp pp pp
-0.0035275 4.15353 7.25259e-09
-0.0035275 4.15353 7.25259e-09
-0.0035275 4.15353 7.25259e-09
ITEM: ATOMS id type xs ys zs 
1 1 -1.46054e-18 -9.38917e-19 -1.04324e-19 
2 1 0.5 0.5 0 
3 1 0.5 -1.29668e-18 0.5 
4 1 -2.02951e-18 0.5 0.5 
5 2 0.5 -8.34593e-19 -3.12972e-19 
6 2 -1.02649e-18 0.5 -3.12972e-19 
7 2 -1.00303e-18 -1.29668e-18 0.5 
8 2 0.5 0.5 0.5 
ITEM: TIMESTEP
18
ITEM: NUMBER OF ATOMS
8
ITEM: BOX BOUNDS xy xz yz pp pp pp
-0.003735 4.15374 7.24039e-09
-0.003735 4.15374 7.24039e-09
-0.003735 4.15374 7.24039e-09
ITEM: ATOMS id type xs ys zs 
1 1 -1.5647e-18 -1.04314e-18 -2.08627e-19 
2 1 0.5 0.5 0 
3 1 0.5 -1.44479e-18 0.5 
4 1 -2.25967e-18 0.5 0.5 
5 2 0.5 -9.38823e-19 -3.12941e-19 
6 2 -1.14323e-18 0.5 -3.12941e-19 
7 2 -1.11644e-18 -1.44479e-18 0.5 
8 2 0.5 0.5 0.5 
ITEM: TIMESTEP
19
ITEM: NUMBER OF ATOMS
8
ITEM: BOX BOUNDS xy xz yz pp pp pp
-0.0039425 4.15394 7.22813e-09
-0.0039425 4.15394 7.22813e-09
-0.0039425 4.15394 7.22813e-09
ITEM: ATOMS id type xs ys zs 
1 1 -1.87746e-18 -1.04303e-18 -2.08606e-19 
2 1 0.5 0.5 0 
3 1 0.5 -1.50176e-18 0.5 
4 1 -2.34758e-18 0.5 0.5 
5 2 0.5 -1.04303e-18 -4.17213e-19 
6 2 -1.2302e-18 0.5 -4.17213e-19 
7 2 -1.11738e-18 -1.50176e-18 0.5 
8 2 0.5 0.5 0.5 
ITEM: TIMESTEP
20
ITEM: NUMBER OF ATOMS
8
ITEM: BOX BOUNDS xy xz yz pp pp pp
-0.00415 4.15415 7.21578e-09
-0.00415 4.15415 7.21578e-09
-0.00415 4.15415 7.21578e-09
ITEM: ATOMS id type xs ys zs 
1 1 -2.08586e-18 -1.04293e-18 -2.08586e-19 
2 1 0.5 0.5 0 
3 1 0.5 -1.53359e-18 0.5 
4 1 -2.50412e-18 0.5 0.5 
5 2 0.5 -1.04293e-18 -4.17171e-19 
6 2 -1.28921e-18 0.5 -4.17171e-19 
7 2 -1.21492e-18 -1.53359e-18 0.5 
8 2 0.5 0.5 0.5 
ITEM: TIMESTEP
21
ITEM: NUMBER OF ATOMS
8
ITEM: BOX BOUNDS xy xz yz pp pp pp
-0.0043575 4.15436 7.20335e-09
-0.0043575 4.15436 7.20335e-09
-0.0043575 4.15436 7.20335e-09
ITEM: ATOMS id type xs ys zs 
1 1 -2.08565e-18 -1.04282e-18 -2.08565e-19 
2 1 0.5 0.5 0 
3 1 0.5 -1.68858e-18 0.5 
4 1 -2.78675e-18 0.5 0.5 
5 2 0.5 -1.04282e-18 -4.1713e-19 
6 2 -1.36814e-18 0.5 -4.1713e-19 
7 2 -1.21005e-18 -1.68858e-18 0.5 
8 2 0.5 0.5 0.5 
ITEM: TIMESTEP
22
ITEM: NUMBER OF ATOMS
8
ITEM: BOX BOUNDS xy xz yz pp pp pp
-0.004565 4.15457 7.19084e-09
-0.004565 4.15457 7.19084e-09
-0.004565 4.15457 7.19084e-09
ITEM: ATOMS id type xs ys zs 
1 1 -2.29398e-18 -1.04272e-18 -2.08544e-19 
2 1 0.5 0.5 0 
3 1 0.5 -1.95133e-18 0.5 
4 1 -2.986e-18 0.5 0.5 
5 2 0.5 -1.04272e-18 -4.17088e-19 
6 2 -1.44906e-18 0.5 -4.17088e-19 
7 2 -1.11986e-18 -1.95133e-18 0.5 
8 2 0.5 0.5 0.5 
ITEM: TIMESTEP
23
ITEM: NUMBER OF ATOMS
8
ITEM: BOX BOUNDS xy xz yz pp pp pp
-0.0047725 4.15477 7.17825e-09
-0.0047725 4.15477 7.17825e-09
-0.0047725 4.15477 7.17825e-09
ITEM: ATOMS id type xs ys zs 
1 1 -2.50228e-18 -1.04262e-18 -2.08523e-19 
2 1 0.5 0.5 0 
3 1 0.5 -2.22767e-18 0.5 
4 1 -3.12057e-18 0.5 0.5 
5 2 0.5 -1.04262e-18 -4.17046e-19 
6 2 -1.48847e-18 0.5 -4.17046e-19 
7 2 -1.21506e-18 -2.22767e-18 0.5 
8 2 0.5 0.5 0.5 
ITEM: TIMESTEP
24
ITEM: NUMBER OF ATOMS
8
ITEM: BOX BOUNDS xy xz yz pp pp pp
-0.00498 4.15498 7.16558e-09
-0.00498 4.15498 7.16558e-09
-0.00498 4.15498 7.16558e-09
ITEM: ATOMS id type xs ys zs 
1 1 -2.71053e-18 -1.25101e-18 -2.08502e-19 
2 1 0.5 0.5 0 
3 1 0.5 -2.52108e-18 0.5 
4 1 -3.2992e-18 0.5 0.5 
5 2 0.5 -1.25101e-18 -4.17005e-19 
6 2 -1.59603e-18 0.5 -4.17005e-19 
7 2 -1.49467e-18 -2.52108e-18 0.5 
8 2 0.5 0.5 0.5 
ITEM: TIMESTEP
25
ITEM: NUMBER OF ATOMS
8
ITEM: BOX BOUNDS xy xz yz pp pp pp
-0.0051875 4.15519 7.15282e-09
-0.0051875 4.15519 7.15282e-09
-0.0051875 4.15519 7.15282e-09
ITEM: ATOMS id type xs ys zs 
1 1 -2.91874e-18 -1.25089e-18 -2.08482e-19 
2 1 0.5 0.5 0 
3 1 0.5 -2.67438e-18 0.5 
4 1 -3.50896e-18 0.5 0.5 
5 2 0.5 -1.25089e-18 -4.16963e-19 
6 2 -1.57921e-18 0.5 -4.16963e-19 
7 2 -1.51279e-18 -2.67438e-18 0.5 
8 2 0.5 0.5 0.5 
ITEM: TIMESTEP
26
ITEM: NUMBER OF ATOMS
8
ITEM: BOX BOUNDS xy xz yz pp pp pp
-0.005395 4.1554 7.13997e-09
-0.005395 4.1554 7.13997e-09
-0.005395 4.1554 7.13997e-09
ITEM: ATOMS id type xs ys zs 
1 1 -3.12691e-18 -1.25076e-18 -2.08461e-19 
2 1 0.5 0.5 0 
3 1 0.5 -2.58993e-18 0.5 
4 1 -3.61723e-18 0.5 0.5 
5 2 0.5 -1.25076e-18 -4.16922e-19 
6 2 -1.67128e-18 0.5 -4.16922e-19 
7 2 -1.52903e-18 -2.58993e-18 0.5 
8 2 0.5 0.5 0.5 
ITEM: TIMESTEP
27
ITEM: NUMBER OF ATOMS
8
ITEM: BOX BOUNDS xy xz yz pp pp pp
-0.0056025 4.1556 7.12704e-09
-0.0056025 4.1556 7.12704e-09
-0.0056025 4.1556 7.12704e-09
ITEM: ATOMS id type xs ys zs 
1 1 -3.1266e-18 -1.25064e-18 -2.0844e-19 
2 1 0.5 0.5 0 
3 1 0.5 -2.49784e-18 0.5 
4 1 -3.77911e-18 0.5 0.5 
5 2 0.5 -1.25064e-18 -4.1688e-19 
6 2 -1.91435e-18 0.5 -4.1688e-19 
7 2 -1.65632e-18 -2.49784e-18 0.5 
8 2 0.5 0.5 0.5 
ITEM: TIMESTEP
28
ITEM: NUMBER OF ATOMS
8
ITEM: BOX BOUNDS xy xz yz pp pp pp
-0.00581 4.15581 7.11402e-09
-0.00581 4.15581 7.11402e-09
-0.00581 4.15581 7.11402e-09
ITEM: ATOMS id type xs ys zs 
1 1 -3.33471e-18 -1.25052e-18 -2.08419e-19 
2 1 0.5 0.5 0 
3 1 0.5 -2.66754e-18 0.5 
4 1 -3.99673e-18 0.5 0.5 
5 2 0.5 -1.25052e-18 -4.16839e-19 
6 2 -2.14569e-18 0.5 -4.16839e-19 
7 2 -1.85104e-18 -2.66754e-18 0.5 
8 2 0.5 0.5 0.5 
ITEM: TIMESTEP
29
ITEM: NUMBER OF ATOMS
8
ITEM: BOX BOUNDS xy xz yz pp pp pp
-0.0060175 4.15602 7.10091e-09
-0.0060175 4.15602 7.10091e-09
-0.0060175 4.15602 7.10091e-09
ITEM: ATOMS id type xs ys zs 
1 1 -3.54277e-18 -1.25039e-18 -2.08398e-19 
2 1 0.5 0.5 0 
3 1 0.5 -2.85787e-18 0.5 
4 1 -4.17939e-18 0.5 0.5 
5 2 0.5 -1.45879e-18 -4.16797e-19 
6 2 -2.32898e-18 0.5 -4.16797e-19 
7 2 -2.05881e-18 -2.85787e-18 0.5 
8 2 0.5 0.5 0.5 
ITEM: TIMESTEP
30
ITEM: NUMBER OF ATOMS
8
ITEM: BOX BOUNDS xy xz yz pp pp pp
-0.006225 4.15623 7.08771e-09
-0.006225 4.15623 7.08771e-09
-0.006225 4.15623 7.08771e-09
ITEM: ATOMS id type xs ys zs 
1 1 -3.7508e-18 -1.25027e-18 -2.08378e-19 
2 1 0.5 0.5 0 
3 1 0.5 -2.9648e-18 0.5 
4 1 -4.39443e-18 0.5 0.5 
5 2 0.5 -1.66702e-18 -4.16755e-19 
6 2 -2.47402e-18 0.5 -4.16755e-19 
7 2 -2.33716e-18 -2.9648e-18 0.5 
8 2 0.5 0.5 0.5 
ITEM: TIMESTEP
31
ITEM: NUMBER OF ATOMS
8
ITEM: BOX BOUNDS xy xz yz pp pp pp
-0.0064325 4.15643 7.07442e-09
-0.0064325 4.15643 7.07442e-09
-0.0064325 4.15643 7.07442e-09
ITEM: ATOMS id type xs ys zs 
1 1 -3.95878e-18 -1.25014e-18 -2.08357e-19 
2 1 0.5 0.5 0 
3 1 0.5 -3.23527e-18 0.5 
4 1 -4.6339e-18 0.5 0.5 
5 2 0.5 -1.66686e-18 -4.16714e-19 
6 2 -2.74298e-18 0.5 -4.16714e-19 
7 2 -2.51599e-18 -3.23527e-18 0.5 
8 2 0.5 0.5 0.5 
ITEM: TIMESTEP
32
ITEM: NUMBER OF ATOMS
8
ITEM: BOX BOUNDS xy xz yz pp pp pp
-0.00664 4.15664 7.06104e-09
-0.00664 4.15664 7.06104e-09
-0.00664 4.15664 7.06104e-09
ITEM: ATOMS id type xs ys zs 
1 1 -4.16672e-18 -1.25002e-18 -2.08336e-19 
2 1 0.5 0.5 0 
3 1 0.5 -3.44895e-18 0.5 
4 1 -4.81226e-18 0.5 0.5 
5 2 0.5 -1.66669e-18 -4.16672e-19 
6 2 -2.88746e-18 0.5 -4.16672e-19 
7 2 -2.75814e-18 -3.44895e-18 0.5 
8 2 0.5 0.5 0.5 
ITEM: TIMESTEP
33
ITEM: NUMBER OF ATOMS
8
ITEM: BOX BOUNDS xy xz yz pp pp pp
-0.0068475 4.15685 7.04756e-09
-0.0068475 4.15685 7.04756e-09
-0.0068475 4.15685 7.04756e-09
ITEM: ATOMS id type xs ys zs 
1 1 -4.37462e-18 -1.24989e-18 -2.08315e-19 
2 1 0.5 0.5 0 
3 1 0.5 -3.59796e-18 0.5 
4 1 -5.25389e-18 0.5 0.5 
5 2 0.5 -1.66652e-18 -4.16631e-19 
6 2 -2.80802e-18 0.5 -4.16631e-19 
7 2 -2.8625e-18 -3.59796e-18 0.5 
8 2 0.5 0.5 0.5 
ITEM: TIMESTEP
34
ITEM: NUMBER OF ATOMS
8
ITEM: BOX BOUNDS xy xz yz pp pp pp
-0.007055 4.15706 7.03399e-09
-0.007055 4.15706 7.03399e-09
-0.007055 4.15706 7.03399e-09
ITEM: ATOMS id type xs ys zs 
1 1 -4.58248e-18 -1.45806e-18 -2.08295e-19 
2 1 0.5 0.5 0 
3 1 0.5 -3.78703e-18 0.5 
4 1 -5.4898e-18 0.5 0.5 
5 2 0.5 -1.66636e-18 -4.16589e-19 
6 2 -2.99905e-18 0.5 -4.16589e-19 
7 2 -3.11563e-18 -3.78703e-18 0.5 
8 2 0.5 0.5 0.5 
ITEM: TIMESTEP
35
ITEM: NUMBER OF ATOMS
8
ITEM: BOX BOUNDS xy xz yz pp pp pp
-0.0072625 4.15726 7.02031e-09
-0.0072625 4.15726 7.02031e-09
-0.0072625 4.15726 7.02031e-09
ITEM: ATOMS id type xs ys zs 
1 1 -4.7903e-18 -1.45792e-18 -2.08274e-19 
2 1 0.5 0.5 0 
3 1 0.5 -3.95321e-18 0.5 
4 1 -5.59506e-18 0.5 0.5 
5 2 0.5 -1.66619e-18 -4.16548e-19 
6 2 -3.05091e-18 0.5 -4.16548e-19 
7 2 -3.37725e-18 -3.95321e-18 0.5 
8 2 0.5 0.5 0.5 
ITEM: TIMESTEP
36
ITEM: NUMBER OF ATOMS
8
ITEM: BOX BOUNDS xy xz yz pp pp pp
-0.00747 4.15747 7.00654e-09
-0.00747 4.15747 7.00654e-09
-0.00747 4.15747 7.00654e-09
ITEM: ATOMS id type xs ys zs 
1 1 -4.99807e-18 -1.45777e-18 -2.08253e-19 
2 1 0.5 0.5 0 
3 1 0.5 -4.06625e-18 0.5 
4 1 -5.87223e-18 0.5 0.5 
5 2 0.5 -1.66602e-18 -4.16506e-19 
6 2 -3.04202e-18 0.5 -4.16506e-19 
7 2 -3.45497e-18 -4.06625e-18 0.5 
8 2 0.5 0.5 0.5 
ITEM: TIMESTEP
37
ITEM: NUMBER OF ATOMS
8
ITEM: BOX BOUNDS xy xz yz pp pp pp
-0.0076775 4.15768 6.99267e-09
-0.0076775 4.15768 6.99267e-09
-0.0076775 4.15768 6.99267e-09
ITEM: ATOMS id type xs ys zs 
1 1 -5.20581e-18 -1.66586e-18 -2.08232e-19 
2 1 0.5 0.5 0 
3 1 0.5 -4.20021e-18 0.5 
4 1 -5.99747e-18 0.5 0.5 
5 2 0.5 -1.87409e-18 -4.16465e-19 
6 2 -3.27121e-18 0.5 -4.16465e-19 
7 2 -3.35096e-18 -4.20021e-18 0.5 
8 2 0.5 0.5 0.5 
ITEM: TIMESTEP
38
ITEM: NUMBER OF ATOMS
8
ITEM: BOX BOUNDS xy xz yz pp pp pp
-0.007885 4.15789 6.9787e-09
-0.007885 4.15789 6.9787e-09
-0.007885 4.15789 6.9787e-09
ITEM: ATOMS id type xs ys zs 
1 1 -5.82993e-18 -1.66569e-18 -4.16423e-19 
2 1 0.5 0.5 0 
3 1 0.5 -4.1187e-18 0.5 
4 1 -6.47514e-18 0.5 0.5 
5 2 0.5 -2.08212e-18 -4.16423e-19 
6 2 -3.36126e-18 0.5 -4.16423e-19 
7 2 -3.5303e-18 -4.1187e-18 0.5 
8 2 0.5 0.5 0.5 
ITEM: TIMESTEP
39
ITEM: NUMBER OF ATOMS
8
ITEM: BOX BOUNDS xy xz yz pp pp pp
-0.0080925 4.15809 6.96462e-09
-0.0080925 4.15809 6.96462e-09
-0.0080925 4.15809 6.96462e-09
ITEM: ATOMS id type xs ys zs 
1 1 -5.82934e-18 -1.66553e-18 -4.16382e-19 
2 1 0.5 0.5 0 
3 1 0.5 -4.12139e-18 0.5 
4 1 -6.7315e-18 0.5 0.5 
5 2 0.5 -2.08191e-18 -4.16382e-19 
6 2 -3.29113e-18 0.5 -4.16382e-19 
7 2 -3.44037e-18 -4.12139e-18 0.5 
8 2 0.5 0.5 0.5 
ITEM: TIMESTEP
40
ITEM: NUMBER OF ATOMS
8
ITEM: BOX BOUNDS xy xz yz pp pp pp
-0.0083 4.1583 6.95044e-09
-0.0083 4.1583 6.95044e-09
-0.0083 4.1583 6.95044e-09
ITEM: ATOMS id type xs ys zs 
1 1 -5.82876e-18 -1.66536e-18 -4.1634e-19 
2 1 0.5 0.5 0 
3 1 0.5 -4.1698e-18 0.5 
4 1 -6.96309e-18 0.5 0.5 
5 2 0.5 -2.0817e-18 -4.1634e-19 
6 2 -3.35488e-18 0.5 -4.1634e-19 
7 2 -3.60821e-18 -4.1698e-18 0.5 
8 2 0.5 0.5 0.5 
ITEM: TIMESTEP
41
ITEM: NUMBER OF ATOMS
8
ITEM: BOX BOUNDS xy xz yz pp pp pp
-0.0085075 4.15851 6.93615e-09
-0.0085075 4.15851 6.93615e-09
-0.0085075 4.15851 6.93615e-09
ITEM: ATOMS id type xs ys zs 
1 1 -5.82818e-18 -1.6652e-18 -4.16299e-19 
2 1 0.5 0.5 0 
3 1 0.5 -3.97647e-18 0.5 
4 1 -6.87624e-18 0.5 0.5 
5 2 0.5 -2.08149e-18 -4.16299e-19 
6 2 -3.46085e-18 0.5 -4.16299e-19 
7 2 -3.4154e-18 -3.97647e-18 0.5 
8 2 0.5 0.5 0.5 
ITEM: TIMESTEP
42
ITEM: NUMBER OF ATOMS
8
ITEM: BOX BOUNDS xy xz yz pp pp pp
-0.008715 4.15872 6.92175e-09
-0.008715 4.15872 6.92175e-09
-0.008715 4.15872 6.92175e-09
ITEM: ATOMS id type xs ys zs 
1 1 -6.24386e-18 -1.66503e-18 -4.16257e-19 
2 1 0.5 0.5 0 
3 1 0.5 -4.1642e-18 0.5 
4 1 -7.24652e-18 0.5 0.5 
5 2 0.5 -2.08129e-18 -4.16257e-19 
6 2 -3.63855e-18 0.5 -4.16257e-19 
7 2 -3.60797e-18 -4.1642e-18 0.5 
8 2 0.5 0.5 0.5 
ITEM: TIMESTEP
43
ITEM: NUMBER OF ATOMS
8
ITEM: BOX BOUNDS xy xz yz pp pp pp
-0.0089225 4.15892 6.90724e-09
-0.0089225 4.15892 6.90724e-09
-0.0089225 4.15892 6.90724e-09
ITEM: ATOMS id type xs ys zs 
1 1 -6.65945e-18 -1.66486e-18 -4.16216e-19 
2 1 0.5 0.5 0 
3 1 0.5 -3.98061e-18 0.5 
4 1 -7.56841e-18 0.5 0.5 
5 2 0.5 -2.08108e-18 -4.16216e-19 
6 2 -3.67681e-18 0.5 -4.16216e-19 
7 2 -3.47539e-18 -3.98061e-18 0.5 
8 2 0.5 0.5 0.5 
ITEM: TIMESTEP
44
ITEM: NUMBER OF ATOMS
8
ITEM: BOX BOUNDS xy xz yz pp pp pp
-0.00913 4.15913 6.89262e-09
-0.00913 4.15913 6.89262e-09
-0.00913 4.15913 6.89262e-09
ITEM: ATOMS id type xs ys zs 
1 1 -6.65879e-18 -1.6647e-18 -4.16174e-19 
2 1 0.5 0.5 0 
3 1 0.5 -4.04877e-18 0.5 
4 1 -7.78491e-18 0.5 0.5 
5 2 0.5 -2.08087e-18 -4.16174e-19 
6 2 -3.48575e-18 0.5 -4.16174e-19 
7 2 -3.46681e-18 -4.04877e-18 0.5 
8 2 0.5 0.5 0.5 
ITEM: TIMESTEP
45
ITEM: NUMBER OF ATOMS
8
ITEM: BOX BOUNDS xy xz yz pp pp pp
-0.0093375 4.15934 6.87789e-09
-0.0093375 4.15934 6.87789e-09
-0.0093375 4.15934 6.87789e-09
ITEM: ATOMS id type xs ys zs 
1 1 -7.07426e-18 -1.66453e-18 -4.16133e-19 
2 1 0.5 0.5 0 
3 1 0.5 -4.10589e-18 0.5 
4 1 -8.13998e-18 0.5 0.5 
5 2 0.5 -2.08067e-18 -4.16133e-19 
6 2 -3.2915e-18 0.5 -4.16133e-19 
7 2 -3.60008e-18 -4.10589e-18 0.5 
8 2 0.5 0.5 0.5 
ITEM: TIMESTEP
46
ITEM: NUMBER OF ATOMS
8
ITEM: BOX BOUNDS xy xz yz pp pp pp
-0.009545 4.15955 6.86304e-09
-0.009545 4.15955 6.86304e-09
-0.009545 4.15955 6.86304e-09
ITEM: ATOMS id type xs ys zs 
1 1 -7.48965e-18 -1.66437e-18 -4.16092e-19 
2 1 0.5 0.5 0 
3 1 0.5 -4.20596e-18 0.5 
4 1 -8.65376e-18 0.5 0.5 
5 2 0.5 -2.08046e-18 -4.16092e-19 
6 2 -3.24554e-18 0.5 -4.16092e-19 
7 2 -3.74386e-18 -4.20596e-18 0.5 
8 2 0.5 0.5 0.5 
ITEM: TIMESTEP
47
ITEM: NUMBER OF ATOMS
8
ITEM: BOX BOUNDS xy xz yz pp pp pp
-0.0097525 4.15975 6.84807e-09
-0.0097525 4.15975 6.84807e-09
-0.0097525 4.15975 6.84807e-09
ITEM: ATOMS id type xs ys zs 
1 1 -7.90495e-18 -1.6642e-18 -4.1605e-19 
2 1 0.5 0.5 0 
3 1 0.5 -4.19582e-18 0.5 
4 1 -8.87055e-18 0.5 0.5 
5 2 0.5 -2.08025e-18 -4.1605e-19 
6 2 -3.4263e-18 0.5 -4.1605e-19 
7 2 -3.78006e-18 -4.19582e-18 0.5 
8 2 0.5 0.5 0.5 
ITEM: TIMESTEP
48
ITEM: NUMBER OF ATOMS
8
ITEM: BOX BOUNDS xy xz yz pp pp pp
-0.00996 4.15996 6.83298e-09
-0.00996 4.15996 6.83298e-09
-0.00996 4.15996 6.83298e-09
ITEM: ATOMS id type xs ys zs 
1 1 -8.32018e-18 -1.66404e-18 -4.16009e-19 
2 1 0.5 0.5 0 
3 1 0.5 -4.00877e-18 0.5 
4 1 -9.34913e-18 0.5 0.5 
5 2 0.5 -2.08004e-18 -4.16009e-19 
6 2 -3.39075e-18 0.5 -4.16009e-19 
7 2 -3.87833e-18 -4.00877e-18 0.5 
8 2 0.5 0.5 0.5 
ITEM: TIMESTEP
49
ITEM: NUMBER OF ATOMS
8
ITEM: BOX BOUNDS xy xz yz pp pp pp
-0.0101675 4.16017 6.81778e-09
-0.0101675 4.16017 6.81778e-09
-0.0101675 4.16017 6.81778e-09
ITEM: ATOMS id type xs ys zs 
1 1 -8.73532e-18 -1.66387e-18 -4.15967e-19 
2 1 0.5 0.5 0 
3 1 0.5 -3.83704e-18 0.5 
4 1 -9.9176e-18 0.5 0.5 
5 2 0.5 -2.07984e-18 -4.15967e-19 
6 2 -3.26531e-18 0.5 -4.15967e-19 
7 2 -3.74052e-18 -3.83704e-18 0.5 
8 2 0.5 0.5 0.5 
ITEM: TIMESTEP
50
ITEM: NUMBER OF ATOMS
8
ITEM: BOX BOUNDS xy xz yz pp pp pp
-0.010375 4.16038 6.80244e-09
-0.010375 4.16038 6.80244e-09
-0.010375 4.16038 6.80244e-09
ITEM: ATOMS id type xs ys zs 
1 1 -9.15037e-18 -1.6637e-18 -4.15926e-19 
2 1 0.5 0.5 0 
3 1 0.5 -3.85906e-18 0.5 
4 1 -1.04632e-17 0.5 0.5 
5 2 0.5 -2.07963e-18 -4.15926e-19 
6 2 -3.42498e-18 0.5 -4.15926e-19 
7 2 -3.71078e-18 -3.85906e-18 0.5 
8 2 0.5 0.5 0.5 
ITEM: TIMESTEP
51
ITEM: NUMBER OF ATOMS
8
ITEM: BOX BOUNDS xy xz yz pp pp pp
-0.0105825 4.16058 6.78698e-09
-0.0105825 4.16058 6.78698e-09
-0.0105825 4.16058 6.78698e-09
ITEM: ATOMS id type xs ys zs 
1 1 -9.56535e-18 -1.66354e-18 -4.15885e-19 
2 1 0.5 0.5 0 
3 1 0.5 -3.90837e-18 0.5 
4 1 -1.10027e-17 0.5 0.5 
5 2 0.5 -2.07942e-18 -4.15885e-19 
6 2 -3.42771e-18 0.5 -4.15885e-19 
7 2 -3.83202e-18 -3.90837e-18 0.5 
8 2 0.5 0.5 0.5 
ITEM: TIMESTEP
52
ITEM: NUMBER OF ATOMS
8
ITEM: BOX BOUNDS xy xz yz pp pp pp
-0.01079 4.16079 6.7714e-09
-0.01079 4.16079 6.7714e-09
-0.01079 4.16079 6.7714e-09
ITEM: ATOMS id type xs ys zs 
1 1 -9.5644e-18 -1.66337e-18 -4.15843e-19 
2 1 0.5 0.5 0 
3 1 0.5 -3.95464e-18 0.5 
4 1 -1.09921e-17 0.5 0.5 
5 2 0.5 -2.07922e-18 -4.15843e-19 
6 2 -3.62775e-18 0.5 -4.15843e-19 
7 2 -4.03762e-18 -3.95464e-18 0.5 
8 2 0.5 0.5 0.5 
ITEM: TIMESTEP
53
ITEM: NUMBER OF ATOMS
8
ITEM: BOX BOUNDS xy xz yz pp pp pp
-0.0109975 4.161 6.75568e-09
-0.0109975 4.161 6.75568e-09
-0.0109975 4.161 6.75568e-09
ITEM: ATOMS id type xs ys zs 
1 1 -9.97925e-18 -1.66321e-18 -4.15802e-19 
2 1 0.5 0.5 0 
3 1 0.5 -4.00057e-18 0.5 
4 1 -1.12825e-17 0.5 0.5 
5 2 0.5 -2.07901e-18 -4.15802e-19 
6 2 -3.51524e-18 0.5 -4.15802e-19 
7 2 -4.02505e-18 -4.00057e-18 0.5 
8 2 0.5 0.5 0.5 
ITEM: TIMESTEP
54
ITEM: NUMBER OF ATOMS
8
ITEM: BOX BOUNDS xy xz yz pp pp pp
-0.011205 4.16121 6.73983e-09
-0.011205 4.16121 6.73983e-09
-0.011205 4.16121 6.73983e-09
ITEM: ATOMS id type xs ys zs 
1 1 -1.0394e-17 -1.66304e-18 -4.15761e-19 
2 1 0.5 0.5 0 
3 1 0.5 -3.93036e-18 0.5 
4 1 -1.14939e-17 0.5 0.5 
5 2 0.5 -2.0788e-18 -4.15761e-19 
6 2 -3.33436e-18 0.5 -4.15761e-19 
7 2 -4.00189e-18 -3.93036e-18 0.5 
8 2 0.5 0.5 0.5 
ITEM: TIMESTEP
55
ITEM: NUMBER OF ATOMS
8
ITEM: BOX BOUNDS xy xz yz pp pp pp
-0.0114125 4.16141 6.72384e-09
-0.0114125 4.16141 6.72384e-09
-0.0114125 4.16141 6.72384e-09
ITEM: ATOMS id type xs ys zs 
1 1 -1.08087e-17 -1.66288e-18 -4.15719e-19 
2 1 0.5 0.5 0 
3 1 0.5 -3.78069e-18 0.5 
4 1 -1.2046e-17 0.5 0.5 
5 2 0.5 -2.0786e-18 -4.15719e-19 
6 2 -3.29969e-18 0.5 -4.15719e-19 
7 2 -4.17336e-18 -3.78069e-18 0.5 
8 2 0.5 0.5 0.5 
ITEM: TIMESTEP
56
ITEM: NUMBER OF ATOMS
8
ITEM: BOX BOUNDS xy xz yz pp pp pp
-0.01162 4.16162 6.70772e-09
-0.01162 4.16162 6.70772e-09
-0.01162 4.16162 6.70772e-09
ITEM: ATOMS id type xs ys zs 
1 1 -1.12233e-17 -1.66271e-18 -4.15678e-19 
2 1 0.5 0.5 0 
3 1 0.5 -3.95472e-18 0.5 
4 1 -1.26268e-17 0.5 0.5 
5 2 0.5 -2.07839e-18 -4.15678e-19 
6 2 -3.30526e-18 0.5 -4.15678e-19 
7 2 -4.33336e-18 -3.95472e-18 0.5 
8 2 0.5 0.5 0.5 
ITEM: TIMESTEP
57
ITEM: NUMBER OF ATOMS
8
ITEM: BOX BOUNDS xy xz yz pp pp pp
-0.0118275 4.16183 6.69145e-09
-0.0118275 4.16183 6.69145e-09
-0.0118275 4.16183 6.69145e-09
ITEM: ATOMS id type xs ys zs 
1 1 -1.12222e-17 -1.66255e-18 -4.15637e-19 
2 1 0.5 0.5 0 
3 1 0.5 -4.1198e-18 0.5 
4 1 -1.31343e-17 0.5 0.5 
5 2 0.5 -2.07818e-18 -4.15637e-19 
6 2 -3.26716e-18 0.5 -4.15637e-19 
7 2 -4.4639e-18 -4.1198e-18 0.5 
8 2 0.5 0.5 0.5 
ITEM: TIMESTEP
58
ITEM: NUMBER OF ATOMS
8
ITEM: BOX BOUNDS xy xz yz pp pp pp
-0.012035 4.16204 6.67505e-09
-0.012035 4.16204 6.67505e-09
-0.012035 4.16204 6.67505e-09
ITEM: ATOMS id type xs ys zs 
1 1 -1.12211e-17 -1.66238e-18 -4.15595e-19 
2 1 0.5 0.5 0 
3 1 0.5 -4.05774e-18 0.5 
4 1 -1.30775e-17 0.5 0.5 
5 2 0.5 -2.07798e-18 -4.15595e-19 
6 2 -3.31767e-18 0.5 -4.15595e-19 
7 2 -4.35713e-18 -4.05774e-18 0.5 
8 2 0.5 0.5 0.5 
ITEM: TIMESTEP
59
ITEM: NUMBER OF ATOMS
8
ITEM: BOX BOUNDS xy xz yz pp pp pp
-0.0122425 4.16224 6.6585e-09
-0.0122425 4.16224 6.6585e-09
-0.0122425 4.16224 6.6585e-09
ITEM: ATOMS id type xs ys zs 
1 1 -1.122e-17 -1.66222e-18 -4.15554e-19 
2 1 0.5 0.5 0 
3 1 0.5 -4.14441e-18 0.5 
4 1 -1.34712e-17 0.5 0.5 
5 2 0.5 -2.07777e-18 -4.15554e-19 
6 2 -3.15066e-18 0.5 -4.15554e-19 
7 2 -4.50284e-18 -4.14441e-18 0.5 
8 2 0.5 0.5 0.5 
ITEM: TIMESTEP
60
ITEM: NUMBER OF ATOMS
8
ITEM: BOX BOUNDS xy xz yz pp pp pp
-0.01245 4.16245 6.64179e-09
-0.01245 4.16245 6.64179e-09
-0.01245 4.16245 6.64179e-09
ITEM: ATOMS id type xs ys zs 
1 1 -1.12188e-17 -1.66205e-18 -4.15513e-19 
2 1 0.5 0.5 0 
3 1 0.5 -4.28893e-18 0.5 
4 1 -1.40192e-17 0.5 0.5 
5 2 0.5 -2.07756e-18 -4.15513e-19 
6 2 -3.18216e-18 0.5 -4.15513e-19 
7 2 -4.60431e-18 -4.28893e-18 0.5 
8 2 0.5 0.5 0.5 
ITEM: TIMESTEP
61
ITEM: NUMBER OF ATOMS
8
ITEM: BOX BOUNDS xy xz yz pp pp pp
-0.0126575 4.16266 6.62494e-09
-0.0126575 4.16266 6.62494e-09
-0.0126575 4.16266 6.62494e-09
ITEM: ATOMS id type xs ys zs 
1 1 -1.12177e-17 -1.66189e-18 -4.15471e-19 
2 1 0.5 0.5 0 
3 1 0.5 -4.43129e-18 0.5 
4 1 -1.43395e-17 0.5 0.5 
5 2 0.5 -2.07736e-18 -4.15471e-19 
6 2 -3.32985e-18 0.5 -4.15471e-19 
7 2 -4.77763e-18 -4.43129e-18 0.5 
8 2 0.5 0.5 0.5 
ITEM: TIMESTEP
62
ITEM: NUMBER OF ATOMS
8
ITEM: BOX BOUNDS xy xz yz pp pp pp
-0.012865 4.16287 6.60794e-09
-0.012865 4.16287 6.60794e-09
-0.012865 4.16287 6.60794e-09
ITEM: ATOMS id type xs ys zs 
1 1 -1.1632e-17 -1.66172e-18 -4.1543e-19 
2 1 0.5 0.5 0 
3 1 0.5 -4.61993e-18 0.5 
4 1 -1.49061e-17 0.5 0.5 
5 2 0.5 -2.07715e-18 -4.1543e-19 
6 2 -3.29852e-18 0.5 -4.1543e-19 
7 2 -4.96073e-18 -4.61993e-18 0.5 
8 2 0.5 0.5 0.5 
ITEM: TIMESTEP
63
ITEM: NUMBER OF ATOMS
8
ITEM: BOX BOUNDS xy xz yz pp pp pp
-0.0130725 4.16307 6.59077e-09
-0.0130725 4.16307 6.59077e-09
-0.0130725 4.16307 6.59077e-09
ITEM: ATOMS id type xs ys zs 
1 1 -1.20463e-17 -1.66155e-18 -4.15389e-19 
2 1 0.5 0.5 0 
3 1 0.5 -4.68468e-18 0.5 
4 1 -1.54792e-17 0.5 0.5 
5 2 0.5 -2.07694e-18 -4.15389e-19 
6 2 -3.38878e-18 0.5 -4.15389e-19 
7 2 -5.02885e-18 -4.68468e-18 0.5 
8 2 0.5 0.5 0.5 
ITEM: TIMESTEP
64
ITEM: NUMBER OF ATOMS
8
ITEM: BOX BOUNDS xy xz yz pp pp pp
-0.01328 4.16328 6.57345e-09
-0.01328 4.16328 6.57345e-09
-0.01328 4.16328 6.57345e-09
ITEM: ATOMS id type xs ys zs 
1 1 -1.20451e-17 -1.66139e-18 -4.15347e-19 
2 1 0.5 0.5 0 
3 1 0.5 -4.84608e-18 0.5 
4 1 -1.57594e-17 0.5 0.5 
5 2 0.5 -2.07674e-18 -4.15347e-19 
6 2 -3.52046e-18 0.5 -4.15347e-19 
7 2 -5.17806e-18 -4.84608e-18 0.5 
8 2 0.5 0.5 0.5 
ITEM: TIMESTEP
65
ITEM: NUMBER OF ATOMS
8
ITEM: BOX BOUNDS xy xz yz pp pp pp
-0.0134875 4.16349 6.55596e-09
-0.0134875 4.16349 6.55596e-09
-0.0134875 4.16349 6.55596e-09
ITEM: ATOMS id type xs ys zs 
1 1 -1.20439e-17 -1.66122e-18 -4.15306e-19 
2 1 0.5 0.5 0 
3 1 0.5 -5.12885e-18 0.5 
4 1 -1.61696e-17 0.5 0.5 
5 2 0.5 -2.07653e-18 -4.15306e-19 
6 2 -3.66728e-18 0.5 -4.15306e-19 
7 2 -5.02686e-18 -5.12885e-18 0.5 
8 2 0.5 0.5 0.5 
ITEM: TIMESTEP
66
ITEM: NUMBER OF ATOMS
8
ITEM: BOX BOUNDS xy xz yz pp pp pp
-0.013695 4.1637 6.5383e-09
-0.013695 4.1637 6.5383e-09
-0.013695 4.1637 6.5383e-09
ITEM: ATOMS id type xs ys zs 
1 1 -1.24579e-17 -1.66106e-18 -4.15265e-19 
2 1 0.5 0.5 0 
3 1 0.5 -5.10872e-18 0.5 
4 1 -1.6399e-17 0.5 0.5 
5 2 0.5 -2.07632e-18 -4.15265e-19 
6 2 -3.82254e-18 0.5 -4.15265e-19 
7 2 -5.10171e-18 -5.10872e-18 0.5 
8 2 0.5 0.5 0.5 
ITEM: TIMESTEP
67
ITEM: NUMBER OF ATOMS
8
ITEM: BOX BOUNDS xy xz yz pp pp pp
-0.0139025 4.1639 6.52048e-09
-0.0139025 4.1639 6.52048e-09
-0.0139025 4.1639 6.52048e-09
ITEM: ATOMS id type xs ys zs 
1 1 -1.28719e-17 -1.66089e-18 -4.15224e-19 
2 1 0.5 0.5 0 
3 1 0.5 -4.96023e-18 0.5 
4 1 -1.67056e-17 0.5 0.5 
5 2 0.5 -2.07612e-18 -4.15224e-19 
6 2 -3.82412e-18 0.5 -4.15224e-19 
7 2 -4.9922e-18 -4.96023e-18 0.5 
8 2 0.5 0.5 0.5 
ITEM: TIMESTEP
68
ITEM: NUMBER OF ATOMS
8
ITEM: BOX BOUNDS xy xz yz pp pp pp
-0.01411 4.16411 6.50248e-09
-0.01411 4.16411 6.50248e-09
-0.01411 4.16411 6.50248e-09
ITEM: ATOMS id type xs ys zs 
1 1 -1.32858e-17 -1.66073e-18 -4.15182e-19 
2 1 0.5 0.5 0 
3 1 0.5 -4.84255e-18 0.5 
4 1 -1.71195e-17 0.5 0.5 
5 2 0.5 -2.07591e-18 -4.15182e-19 
6 2 -3.79108e-18 0.5 -4.15182e-19 
7 2 -5.02479e-18 -4.84255e-18 0.5 
8 2 0.5 0.5 0.5 
ITEM: TIMESTEP
69
ITEM: NUMBER OF ATOMS
8
ITEM: BOX BOUNDS xy xz yz pp pp pp
-0.0143175 4.16432 6.4843e-09
-0.0143175 4.16432 6.4843e-09
-0.0143175 4.16432 6.4843e-09
ITEM: ATOMS id type xs ys zs 
1 1 -1.36997e-17 -1.66056e-18 -4.15141e-19 
2 1 0.5 0.5 0 
3 1 0.5 -4.90912e-18 0.5 
4 1 -1.74922e-17 0.5 0.5 
5 2 0.5 -2.07571e-18 -4.15141e-19 
6 2 -3.91081e-18 0.5 -4.15141e-19 
7 2 -4.86344e-18 -4.90912e-18 0.5 
8 2 0.5 0.5 0.5 
ITEM: TIMESTEP
70
ITEM: NUMBER OF ATOMS
8
ITEM: BOX BOUNDS xy xz yz pp pp pp
-0.014525 4.16453 6.46594e-09
-0.014525 4.16453 6.46594e-09