ITEM: TIMESTEP
0
ITEM: NUMBER OF ATOMS
288
ITEM: BOX BOUNDS pp pp pp
0 4.212
0 25.272
0 25.272
ITEM: ATOMS id type xs ys zs 
1 1 0 0.0119224 0.0119224 
2 2 0.5 0.0119224 0.0119224 
3 2 0 0.00283589 0.0861692 
4 1 0.5 0.00283589 0.0861692 
5 1 0 0.0255481 0.192215 
6 2 0.5 0.0255481 0.192215 
25 2 0 0.104 0.0206671 
26 1 0.5 0.104 0.0206671 
27 1 0 0.103781 0.103781 
28 2 0.5 0.103781 0.103781 
29 2 0 0.0556362 0.13897 
30 1 0.5 0.0556362 0.13897 
51 2 0 0.184268 0.100935 
52 1 0.5 0.184268 0.100935 
53 1 0 0.144211 0.144211 
54 2 0.5 0.144211 0.144211 
73 2 0 0.255042 0.00504193 
74 1 0.5 0.255042 0.00504193 
75 1 0 0.238933 0.0722661 
76 2 0.5 0.238933 0.0722661 
77 2 0 0.277125 0.193792 
78 1 0.5 0.277125 0.193792 
97 1 0 0.353607 0.0202736 
98 2 0.5 0.353607 0.0202736 
99 2 0 0.319505 0.0695047 
100 1 0.5 0.319505 0.0695047 
101 1 0 0.330842 0.164175 
102 2 0.5 0.330842 0.164175 
123 1 0 0.399293 0.0659599 
124 2 0.5 0.399293 0.0659599 
125 2 0 0.417385 0.167385 
126 1 0.5 0.417385 0.167385 
147 2 0 0.510642 0.0939752 
148 1 0.5 0.510642 0.0939752 
149 1 0 0.48593 0.152596 
150 2 0.5 0.48593 0.152596 
169 2 0 0.597564 0.014231 
170 1 0.5 0.597564 0.014231 
173 2 0 0.57532 0.158654 
174 1 0.5 0.57532 0.158654 
171 1 0 0.605435 0.105435 
172 2 0.5 0.605435 0.105435 
195 2 0 0.688243 0.10491 
196 1 0.5 0.688243 0.10491 
197 1 0 0.659278 0.159278 
198 2 0.5 0.659278 0.159278 
219 1 0 0.723941 0.0572746 
220 2 0.5 0.723941 0.0572746 
221 2 0 0.775285 0.191951 
222 1 0.5 0.775285 0.191951 
241 1 0 0.846154 0.0128211 
242 2 0.5 0.846154 0.0128211 
243 2 0 0.82017 0.0701698 
244 1 0.5 0.82017 0.0701698 
245 1 0 0.844197 0.17753 
246 2 0.5 0.844197 0.17753 
267 1 0 0.943155 0.109822 
268 2 0.5 0.943155 0.109822 
269 2 0 0.942015 0.192015 
270 1 0.5 0.942015 0.192015 
7 2 0 0.0212301 0.27123 
8 1 0.5 0.0212301 0.27123 
9 1 0 0.00100897 0.334342 
10 2 0.5 0.00100897 0.334342 
31 1 0 0.0568124 0.223479 
32 2 0.5 0.0568124 0.223479 
33 2 0 0.0915471 0.341547 
34 1 0.5 0.0915471 0.341547 
55 2 0 0.169651 0.252985 
56 1 0.5 0.169651 0.252985 
57 1 0 0.18384 0.350507 
58 2 0.5 0.18384 0.350507 
79 1 0 0.270859 0.270859 
80 2 0.5 0.270859 0.270859 
81 2 0 0.264681 0.348015 
82 1 0.5 0.264681 0.348015 
103 2 0 0.316021 0.232687 
104 1 0.5 0.316021 0.232687 
105 1 0 0.316297 0.316297 
106 2 0.5 0.316297 0.316297 
127 1 0 0.439725 0.273058 
128 2 0.5 0.439725 0.273058 
129 2 0 0.40847 0.325137 
130 1 0.5 0.40847 0.325137 
151 2 0 0.480562 0.230562 
152 1 0.5 0.480562 0.230562 
153 1 0 0.511345 0.344678 
154 2 0.5 0.511345 0.344678 
175 1 0 0.576101 0.242767 
176 2 0.5 0.576101 0.242767 
177 2 0 0.58608 0.33608 
178 1 0.5 0.58608 0.33608 
199 2 0 0.645352 0.228685 
200 1 0.5 0.645352 0.228685 
201 1 0 0.658335 0.325001 
202 2 0.5 0.658335 0.325001 
203 2 0 0.644376 0.394376 
204 1 0.5 0.644376 0.394376 
223 1 0 0.771446 0.271446 
224 2 0.5 0.771446 0.271446 
225 2 0 0.726943 0.310277 
226 1 0.5 0.726943 0.310277 
247 2 0 0.806028 0.222695 
248 1 0.5 0.806028 0.222695 
249 1 0 0.822885 0.322885 
250 2 0.5 0.822885 0.322885 
271 1 0 0.930735 0.264069 
272 2 0.5 0.930735 0.264069 
273 2 0 0.902953 0.31962 
274 1 0.5 0.902953 0.31962 
15 2 0 0.0055298 0.588863 
16 1 0.5 0.0055298 0.588863 
35 1 0 0.0981644 0.431498 
36 2 0.5 0.0981644 0.431498 
37 2 0 0.0629217 0.479588 
38 1 0.5 0.0629217 0.479588 
39 1 0 0.0645484 0.564548 
40 2 0.5 0.0645484 0.564548 
59 2 0 0.18255 0.43255 
60 1 0.5 0.18255 0.43255 
61 1 0 0.139797 0.47313 
62 2 0.5 0.139797 0.47313 
63 2 0 0.150809 0.567476 
64 1 0.5 0.150809 0.567476 
83 1 0 0.269033 0.435699 
84 2 0.5 0.269033 0.435699 
85 2 0 0.236329 0.486329 
86 1 0.5 0.236329 0.486329 
87 1 0 0.237295 0.570628 
88 2 0.5 0.237295 0.570628 
107 2 0 0.321061 0.404394 
108 1 0.5 0.321061 0.404394 
109 1 0 0.351484 0.51815 
110 2 0.5 0.351484 0.51815 
111 2 0 0.331241 0.581241 
112 1 0.5 0.331241 0.581241 
131 1 0 0.409269 0.409269 
132 2 0.5 0.409269 0.409269 
133 2 0 0.414137 0.49747 
134 1 0.5 0.414137 0.49747 
135 1 0 0.423287 0.589953 
136 2 0.5 0.423287 0.589953 
155 2 0 0.49139 0.408056 
156 1 0.5 0.49139 0.408056 
157 1 0 0.516432 0.516432 
158 2 0.5 0.516432 0.516432 
159 2 0 0.486627 0.569961 
160 1 0.5 0.486627 0.569961 
179 1 0 0.568524 0.401857 
180 2 0.5 0.568524 0.401857 
181 2 0 0.559723 0.47639 
182 1 0.5 0.559723 0.47639 
183 1 0 0.557657 0.557657 
184 2 0.5 0.557657 0.557657 
205 1 0 0.689825 0.523159 
206 2 0.5 0.689825 0.523159 
227 1 0 0.764911 0.431577 
228 2 0.5 0.764911 0.431577 
229 2 0 0.769103 0.519103 
230 1 0.5 0.769103 0.519103 
231 1 0 0.729319 0.562652 
232 2 0.5 0.729319 0.562652 
11 2 0 0.989734 0.406401 
12 1 0.5 0.989734 0.406401 
13 1 0 0.995323 0.495323 
14 2 0.5 0.995323 0.495323 
251 2 0 0.839869 0.423202 
252 1 0.5 0.839869 0.423202 
253 1 0 0.837413 0.50408 
254 2 0.5 0.837413 0.50408 
255 2 0 0.809945 0.559945 
256 1 0.5 0.809945 0.559945 
275 1 0 0.902215 0.402215 
276 2 0.5 0.902215 0.402215 
277 2 0 0.893627 0.476961 
278 1 0.5 0.893627 0.476961 
279 1 0 0.931224 0.597891 
280 2 0.5 0.931224 0.597891 
17 1 0 0.0139061 0.680573 
18 2 0.5 0.0139061 0.680573 
19 2 0 0.0216793 0.771679 
20 1 0.5 0.0216793 0.771679 
41 2 0 0.0934816 0.676815 
42 1 0.5 0.0934816 0.676815 
43 1 0 0.0868514 0.753518 
44 2 0.5 0.0868514 0.753518 
65 1 0 0.144226 0.644226 
66 2 0.5 0.144226 0.644226 
67 2 0 0.147646 0.730979 
68 1 0.5 0.147646 0.730979 
89 2 0 0.245442 0.662108 
90 1 0.5 0.245442 0.662108 
91 1 0 0.277061 0.777061 
92 2 0.5 0.277061 0.777061 
113 1 0 0.323958 0.657291 
114 2 0.5 0.323958 0.657291 
115 2 0 0.32189 0.738557 
116 1 0.5 0.32189 0.738557 
137 2 0 0.431464 0.681464 
138 1 0.5 0.431464 0.681464 
139 1 0 0.415742 0.749075 
140 2 0.5 0.415742 0.749075 
161 1 0 0.490591 0.657257 
162 2 0.5 0.490591 0.657257 
163 2 0 0.499378 0.749378 
164 1 0.5 0.499378 0.749378 
185 2 0 0.572341 0.655674 
186 1 0.5 0.572341 0.655674 
187 1 0 0.566778 0.733445 
188 2 0.5 0.566778 0.733445 
207 2 0 0.684105 0.600771 
208 1 0.5 0.684105 0.600771 
209 1 0 0.663792 0.663792 
210 2 0.5 0.663792 0.663792 
211 2 0 0.640096 0.72343 
212 1 0.5 0.640096 0.72343 
233 2 0 0.743938 0.660604 
234 1 0.5 0.743938 0.660604 
235 1 0 0.759679 0.759679 
236 2 0.5 0.759679 0.759679 
257 1 0 0.858428 0.691761 
258 2 0.5 0.858428 0.691761 
259 2 0 0.860233 0.7769 
260 1 0.5 0.860233 0.7769 
281 2 0 0.895785 0.645785 
282 1 0.5 0.895785 0.645785 
283 1 0 0.941801 0.775135 
284 2 0.5 0.941801 0.775135 
21 1 0 0.0155198 0.848853 
22 2 0.5 0.0155198 0.848853 
23 2 0 0.0233468 0.940013 
24 1 0.5 0.0233468 0.940013 
45 2 0 0.0857156 0.835716 
46 1 0.5 0.0857156 0.835716 
47 1 0 0.0910458 0.924379 
48 2 0.5 0.0910458 0.924379 
49 1 0 0.151166 0.9845 
50 2 0.5 0.151166 0.9845 
69 1 0 0.193158 0.859825 
70 2 0.5 0.193158 0.859825 
71 2 0 0.152361 0.902361 
72 1 0.5 0.152361 0.902361 
93 2 0 0.268118 0.851451 
94 1 0.5 0.268118 0.851451 
95 1 0 0.258392 0.925058 
96 2 0.5 0.258392 0.925058 
117 1 0 0.334939 0.834939 
118 2 0.5 0.334939 0.834939 
119 2 0 0.306742 0.890076 
120 1 0.5 0.306742 0.890076 
121 2 0 0.398647 0.98198 
122 1 0.5 0.398647 0.98198 
143 1 0 0.396461 0.896461 
144 2 0.5 0.396461 0.896461 
141 2 0 0.425878 0.842544 
142 1 0.5 0.425878 0.842544 
145 1 0 0.495084 0.995084 
146 2 0.5 0.495084 0.995084 
165 1 0 0.508894 0.842227 
166 2 0.5 0.508894 0.842227 
167 2 0 0.52254 0.939206 
168 1 0.5 0.52254 0.939206 
191 1 0 0.571485 0.904818 
192 2 0.5 0.571485 0.904818 
189 2 0 0.607535 0.857535 
190 1 0.5 0.607535 0.857535 
193 1 0 0.663598 0.996931 
194 2 0.5 0.663598 0.996931 
213 1 0 0.648017 0.814684 
214 2 0.5 0.648017 0.814684 
215 2 0 0.658069 0.908069 
216 1 0.5 0.658069 0.908069 
217 2 0 0.74244 0.99244 
218 1 0.5 0.74244 0.99244 
237 2 0 0.757469 0.840802 
238 1 0.5 0.757469 0.840802 
239 1 0 0.75357 0.920237 
240 2 0.5 0.75357 0.920237 
261 1 0 0.811818 0.811818 
262 2 0.5 0.811818 0.811818 
263 2 0 0.826558 0.909892 
264 1 0.5 0.826558 0.909892 
265 2 0 0.911346 0.994679 
266 1 0.5 0.911346 0.994679 
285 2 0 0.92437 0.841037 
286 1 0.5 0.92437 0.841037 
287 1 0 0.894861 0.894861 
288 2 0.5 0.894861 0.894861 
ITEM: TIMESTEP
1
ITEM: NUMBER OF ATOMS
288
ITEM: BOX BOUNDS pp pp pp
0 4.212
0 25.272
0 25.272
ITEM: ATOMS id type xs ys zs 
1 1 0 0.0119224 0.0119224 
2 2 0.5 0.0119224 0.0119224 
3 2 0 0.00283589 0.0861692 
4 1 0.5 0.00283589 0.0861692 
5 1 0 0.0255481 0.192215 
6 2 0.5 0.0255481 0.192215 
25 2 0 0.104 0.0206671 
26 1 0.5 0.104 0.0206671 
27 1 0 0.103781 0.103781 
28 2 0.5 0.103781 0.103781 
29 2 0 0.0556362 0.13897 
30 1 0.5 0.0556362 0.13897 
51 2 0 0.184268 0.100935 
52 1 0.5 0.184268 0.100935 
53 1 0 0.144211 0.144211 
54 2 0.5 0.144211 0.144211 
73 2 0 0.255042 0.00504193 
74 1 0.5 0.255042 0.00504193 
75 1 0 0.238933 0.0722661 
76 2 0.5 0.238933 0.0722661 
77 2 0 0.277125 0.193792 
78 1 0.5 0.277125 0.193792 
97 1 0 0.353607 0.0202736 
98 2 0.5 0.353607 0.0202736 
99 2 0 0.319505 0.0695047 
100 1 0.5 0.319505 0.0695047 
101 1 0 0.330842 0.164175 
102 2 0.5 0.330842 0.164175 
123 1 0 0.399293 0.0659599 
124 2 0.5 0.399293 0.0659599 
125 2 0 0.417385 0.167385 
126 1 0.5 0.417385 0.167385 
147 2 0 0.510642 0.0939752 
148 1 0.5 0.510642 0.0939752 
149 1 0 0.48593 0.152596 
150 2 0.5 0.48593 0.152596 
169 2 0 0.597564 0.014231 
170 1 0.5 0.597564 0.014231 
173 2 0 0.57532 0.158654 
174 1 0.5 0.57532 0.158654 
171 1 0 0.605435 0.105435 
172 2 0.5 0.605435 0.105435 
195 2 0 0.688243 0.10491 
196 1 0.5 0.688243 0.10491 
197 1 0 0.659278 0.159278 
198 2 0.5 0.659278 0.159278 
219 1 0 0.723941 0.0572746 
220 2 0.5 0.723941 0.0572746 
221 2 0 0.775285 0.191951 
222 1 0.5 0.775285 0.191951 
241 1 0 0.846154 0.0128211 
242 2 0.5 0.846154 0.0128211 
243 2 0 0.82017 0.0701698 
244 1 0.5 0.82017 0.0701698 
245 1 0 0.844197 0.17753 
246 2 0.5 0.844197 0.17753 
267 1 0 0.943155 0.109822 
268 2 0.5 0.943155 0.109822 
269 2 0 0.942015 0.192015 
270 1 0.5 0.942015 0.192015 
7 2 0 0.0212301 0.27123 
8 1 0.5 0.0212301 0.27123 
9 1 0 0.00100897 0.334342 
10 2 0.5 0.00100897 0.334342 
31 1 0 0.0568124 0.223479 
32 2 0.5 0.0568124 0.223479 
33 2 0 0.0915471 0.341547 
34 1 0.5 0.0915471 0.341547 
55 2 0 0.169651 0.252985 
56 1 0.5 0.169651 0.252985 
57 1 0 0.18384 0.350507 
58 2 0.5 0.18384 0.350507 
79 1 0 0.270859 0.270859 
80 2 0.5 0.270859 0.270859 
81 2 0 0.264681 0.348015 
82 1 0.5 0.264681 0.348015 
103 2 0 0.316021 0.232687 
104 1 0.5 0.316021 0.232687 
105 1 0 0.316297 0.316297 
106 2 0.5 0.316297 0.316297 
127 1 0 0.439725 0.273058 
128 2 0.5 0.439725 0.273058 
129 2 0 0.40847 0.325137 
130 1 0.5 0.40847 0.325137 
151 2 0 0.480562 0.230562 
152 1 0.5 0.480562 0.230562 
153 1 0 0.511345 0.344678 
154 2 0.5 0.511345 0.344678 
175 1 0 0.576101 0.242767 
176 2 0.5 0.576101 0.242767 
177 2 0 0.58608 0.33608 
178 1 0.5 0.58608 0.33608 
199 2 0 0.645352 0.228685 
200 1 0.5 0.645352 0.228685 
201 1 0 0.658335 0.325001 
202 2 0.5 0.658335 0.325001 
203 2 0 0.644376 0.394376 
204 1 0.5 0.644376 0.394376 
223 1 0 0.771446 0.271446 
224 2 0.5 0.771446 0.271446 
225 2 0 0.726943 0.310277 
226 1 0.5 0.726943 0.310277 
247 2 0 0.806028 0.222695 
248 1 0.5 0.806028 0.222695 
249 1 0 0.822885 0.322885 
250 2 0.5 0.822885 0.322885 
271 1 0 0.930735 0.264069 
272 2 0.5 0.930735 0.264069 
273 2 0 0.902953 0.31962 
274 1 0.5 0.902953 0.31962 
15 2 0 0.0055298 0.588863 
16 1 0.5 0.0055298 0.588863 
35 1 0 0.0981644 0.431498 
36 2 0.5 0.0981644 0.431498 
37 2 0 0.0629217 0.479588 
38 1 0.5 0.0629217 0.479588 
39 1 0 0.0645484 0.564548 
40 2 0.5 0.0645484 0.564548 
59 2 0 0.18255 0.43255 
60 1 0.5 0.18255 0.43255 
61 1 0 0.139797 0.47313 
62 2 0.5 0.139797 0.47313 
63 2 0 0.150809 0.567476 
64 1 0.5 0.150809 0.567476 
83 1 0 0.269033 0.435699 
84 2 0.5 0.269033 0.435699 
85 2 0 0.236329 0.486329 
86 1 0.5 0.236329 0.486329 
87 1 0 0.237295 0.570628 
88 2 0.5 0.237295 0.570628 
107 2 0 0.321061 0.404394 
108 1 0.5 0.321061 0.404394 
109 1 0 0.351484 0.51815 
110 2 0.5 0.351484 0.51815 
111 2 0 0.331241 0.581241 
112 1 0.5 0.331241 0.581241 
131 1 0 0.409269 0.409269 
132 2 0.5 0.409269 0.409269 
133 2 0 0.414137 0.49747 
134 1 0.5 0.414137 0.49747 
135 1 0 0.423287 0.589953 
136 2 0.5 0.423287 0.589953 
155 2 0 0.49139 0.408056 
156 1 0.5 0.49139 0.408056 
157 1 0 0.516432 0.516432 
158 2 0.5 0.516432 0.516432 
159 2 0 0.486627 0.569961 
160 1 0.5 0.486627 0.569961 
179 1 0 0.568524 0.401857 
180 2 0.5 0.568524 0.401857 
181 2 0 0.559723 0.47639 
182 1 0.5 0.559723 0.47639 
183 1 0 0.557657 0.557657 
184 2 0.5 0.557657 0.557657 
205 1 0 0.689825 0.523159 
206 2 0.5 0.689825 0.523159 
227 1 0 0.764911 0.431577 
228 2 0.5 0.764911 0.431577 
229 2 0 0.769103 0.519103 
230 1 0.5 0.769103 0.519103 
231 1 0 0.729319 0.562652 
232 2 0.5 0.729319 0.562652 
11 2 0 0.989734 0.406401 
12 1 0.5 0.989734 0.406401 
13 1 0 0.995323 0.495323 
14 2 0.5 0.995323 0.495323 
251 2 0 0.839869 0.423202 
252 1 0.5 0.839869 0.423202 
253 1 0 0.837413 0.50408 
254 2 0.5 0.837413 0.50408 
255 2 0 0.809945 0.559945 
256 1 0.5 0.809945 0.559945 
275 1 0 0.902215 0.402215 
276 2 0.5 0.902215 0.402215 
277 2 0 0.893627 0.476961 
278 1 0.5 0.893627 0.476961 
279 1 0 0.931224 0.597891 
280 2 0.5 0.931224 0.597891 
17 1 0 0.0139061 0.680573 
18 2 0.5 0.0139061 0.680573 
19 2 0 0.0216793 0.771679 
20 1 0.5 0.0216793 0.771679 
41 2 0 0.0934816 0.676815 
42 1 0.5 0.0934816 0.676815 
43 1 0 0.0868514 0.753518 
44 2 0.5 0.0868514 0.753518 
65 1 0 0.144226 0.644226 
66 2 0.5 0.144226 0.644226 
67 2 0 0.147646 0.730979 
68 1 0.5 0.147646 0.730979 
89 2 0 0.245442 0.662108 
90 1 0.5 0.245442 0.662108 
91 1 0 0.277061 0.777061 
92 2 0.5 0.277061 0.777061 
113 1 0 0.323958 0.657291 
114 2 0.5 0.323958 0.657291 
115 2 0 0.32189 0.738557 
116 1 0.5 0.32189 0.738557 
137 2 0 0.431464 0.681464 
138 1 0.5 0.431464 0.681464 
139 1 0 0.415742 0.749075 
140 2 0.5 0.415742 0.749075 
161 1 0 0.490591 0.657257 
162 2 0.5 0.490591 0.657257 
163 2 0 0.499378 0.749378 
164 1 0.5 0.499378 0.749378 
185 2 0 0.572341 0.655674 
186 1 0.5 0.572341 0.655674 
187 1 0 0.566778 0.733445 
188 2 0.5 0.566778 0.733445 
207 2 0 0.684105 0.600771 
208 1 0.5 0.684105 0.600771 
209 1 0 0.663792 0.663792 
210 2 0.5 0.663792 0.663792 
211 2 0 0.640096 0.72343 
212 1 0.5 0.640096 0.72343 
233 2 0 0.743938 0.660604 
234 1 0.5 0.743938 0.660604 
235 1 0 0.759679 0.759679 
236 2 0.5 0.759679 0.759679 
257 1 0 0.858428 0.691761 
258 2 0.5 0.858428 0.691761 
259 2 0 0.860233 0.7769 
260 1 0.5 0.860233 0.7769 
281 2 0 0.895785 0.645785 
282 1 0.5 0.895785 0.645785 
283 1 0 0.941801 0.775135 
284 2 0.5 0.941801 0.775135 
21 1 0 0.0155198 0.848853 
22 2 0.5 0.0155198 0.848853 
23 2 0 0.0233468 0.940013 
24 1 0.5 0.0233468 0.940013 
45 2 0 0.0857156 0.835716 
46 1 0.5 0.0857156 0.835716 
47 1 0 0.0910458 0.924379 
48 2 0.5 0.0910458 0.924379 
49 1 0 0.151166 0.9845 
50 2 0.5 0.151166 0.9845 
69 1 0 0.193158 0.859825 
70 2 0.5 0.193158 0.859825 
71 2 0 0.152361 0.902361 
72 1 0.5 0.152361 0.902361 
93 2 0 0.268118 0.851451 
94 1 0.5 0.268118 0.851451 
95 1 0 0.258392 0.925058 
96 2 0.5 0.258392 0.925058 
117 1 0 0.334939 0.834939 
118 2 0.5 0.334939 0.834939 
119 2 0 0.306742 0.890076 
120 1 0.5 0.306742 0.890076 
121 2 0 0.398647 0.98198 
122 1 0.5 0.398647 0.98198 
143 1 0 0.396461 0.896461 
144 2 0.5 0.396461 0.896461 
141 2 0 0.425878 0.842544 
142 1 0.5 0.425878 0.842544 
145 1 0 0.495084 0.995084 
146 2 0.5 0.495084 0.995084 
165 1 0 0.508894 0.842227 
166 2 0.5 0.508894 0.842227 
167 2 0 0.52254 0.939206 
168 1 0.5 0.52254 0.939206 
191 1 0 0.571485 0.904818 
192 2 0.5 0.571485 0.904818 
189 2 0 0.607535 0.857535 
190 1 0.5 0.607535 0.857535 
193 1 0 0.663598 0.996931 
194 2 0.5 0.663598 0.996931 
213 1 0 0.648017 0.814684 
214 2 0.5 0.648017 0.814684 
215 2 0 0.658069 0.908069 
216 1 0.5 0.658069 0.908069 
217 2 0 0.74244 0.99244 
218 1 0.5 0.74244 0.99244 
237 2 0 0.757469 0.840802 
238 1 0.5 0.757469 0.840802 
239 1 0 0.75357 0.920237 
240 2 0.5 0.75357 0.920237 
261 1 0 0.811818 0.811818 
262 2 0.5 0.811818 0.811818 
263 2 0 0.826558 0.909892 
264 1 0.5 0.826558 0.909892 
265 2 0 0.911346 0.994679 
266 1 0.5 0.911346 0.994679 
285 2 0 0.92437 0.841037 
286 1 0.5 0.92437 0.841037 
287 1 0 0.894861 0.894861 
288 2 0.5 0.894861 0.894861 
ITEM: TIMESTEP
2
ITEM: NUMBER OF ATOMS
288
ITEM: BOX BOUNDS pp pp pp
0 4.212
0 25.272
0 25.272
ITEM: ATOMS id type xs ys zs 
1 1 0 0.0119224 0.0119224 
2 2 0.5 0.0119224 0.0119224 
3 2 0 0.00283589 0.0861692 
4 1 0.5 0.00283589 0.0861692 
5 1 0 0.0255481 0.192215 
6 2 0.5 0.0255481 0.192215 
25 2 0 0.104 0.0206671 
26 1 0.5 0.104 0.0206671 
27 1 0 0.103781 0.103781 
28 2 0.5 0.103781 0.103781 
29 2 0 0.0556362 0.13897 
30 1 0.5 0.0556362 0.13897 
51 2 0 0.184268 0.100935 
52 1 0.5 0.184268 0.100935 
53 1 0 0.144211 0.144211 
54 2 0.5 0.144211 0.144211 
73 2 0 0.255042 0.00504193 
74 1 0.5 0.255042 0.00504193 
75 1 0 0.238933 0.0722661 
76 2 0.5 0.238933 0.0722661 
77 2 0 0.277125 0.193792 
78 1 0.5 0.277125 0.193792 
97 1 0 0.353607 0.0202736 
98 2 0.5 0.353607 0.0202736 
99 2 0 0.319505 0.0695047 
100 1 0.5 0.319505 0.0695047 
101 1 0 0.330842 0.164175 
102 2 0.5 0.330842 0.164175 
123 1 0 0.399293 0.0659599 
124 2 0.5 0.399293 0.0659599 
125 2 0 0.417385 0.167385 
126 1 0.5 0.417385 0.167385 
147 2 0 0.510642 0.0939752 
148 1 0.5 0.510642 0.0939752 
149 1 0 0.48593 0.152596 
150 2 0.5 0.48593 0.152596 
169 2 0 0.597564 0.014231 
170 1 0.5 0.597564 0.014231 
173 2 0 0.57532 0.158654 
174 1 0.5 0.57532 0.158654 
171 1 0 0.605435 0.105435 
172 2 0.5 0.605435 0.105435 
195 2 0 0.688243 0.10491 
196 1 0.5 0.688243 0.10491 
197 1 0 0.659278 0.159278 
198 2 0.5 0.659278 0.159278 
219 1 0 0.723941 0.0572746 
220 2 0.5 0.723941 0.0572746 
221 2 0 0.775285 0.191951 
222 1 0.5 0.775285 0.191951 
241 1 0 0.846154 0.0128211 
242 2 0.5 0.846154 0.0128211 
243 2 0 0.82017 0.0701698 
244 1 0.5 0.82017 0.0701698 
245 1 0 0.844197 0.17753 
246 2 0.5 0.844197 0.17753 
267 1 0 0.943155 0.109822 
268 2 0.5 0.943155 0.109822 
269 2 0 0.942015 0.192015 
270 1 0.5 0.942015 0.192015 
7 2 0 0.0212301 0.27123 
8 1 0.5 0.0212301 0.27123 
9 1 0 0.00100897 0.334342 
10 2 0.5 0.00100897 0.334342 
31 1 0 0.0568124 0.223479 
32 2 0.5 0.0568124 0.223479 
33 2 0 0.0915471 0.341547 
34 1 0.5 0.0915471 0.341547 
55 2 0 0.169651 0.252985 
56 1 0.5 0.169651 0.252985 
57 1 0 0.18384 0.350507 
58 2 0.5 0.18384 0.350507 
79 1 0 0.270859 0.270859 
80 2 0.5 0.270859 0.270859 
81 2 0 0.264681 0.348015 
82 1 0.5 0.264681 0.348015 
103 2 0 0.316021 0.232687 
104 1 0.5 0.316021 0.232687 
105 1 0 0.316297 0.316297 
106 2 0.5 0.316297 0.316297 
127 1 0 0.439725 0.273058 
128 2 0.5 0.439725 0.273058 
129 2 0 0.40847 0.325137 
130 1 0.5 0.40847 0.325137 
151 2 0 0.480562 0.230562 
152 1 0.5 0.480562 0.230562 
153 1 0 0.511345 0.344678 
154 2 0.5 0.511345 0.344678 
175 1 0 0.576101 0.242767 
176 2 0.5 0.576101 0.242767 
177 2 0 0.58608 0.33608 
178 1 0.5 0.58608 0.33608 
199 2 0 0.645352 0.228685 
200 1 0.5 0.645352 0.228685 
201 1 0 0.658335 0.325001 
202 2 0.5 0.658335 0.325001 
203 2 0 0.644376 0.394376 
204 1 0.5 0.644376 0.394376 
223 1 0 0.771446 0.271446 
224 2 0.5 0.771446 0.271446 
225 2 0 0.726943 0.310277 
226 1 0.5 0.726943 0.310277 
247 2 0 0.806028 0.222695 
248 1 0.5 0.806028 0.222695 
249 1 0 0.822885 0.322885 
250 2 0.5 0.822885 0.322885 
271 1 0 0.930735 0.264069 
272 2 0.5 0.930735 0.264069 
273 2 0 0.902953 0.31962 
274 1 0.5 0.902953 0.31962 
15 2 0 0.0055298 0.588863 
16 1 0.5 0.0055298 0.588863 
35 1 0 0.0981644 0.431498 
36 2 0.5 0.0981644 0.431498 
37 2 0 0.0629217 0.479588 
38 1 0.5 0.0629217 0.479588 
39 1 0 0.0645484 0.564548 
40 2 0.5 0.0645484 0.564548 
59 2 0 0.18255 0.43255 
60 1 0.5 0.18255 0.43255 
61 1 0 0.139797 0.47313 
62 2 0.5 0.139797 0.47313 
63 2 0 0.150809 0.567476 
64 1 0.5 0.150809 0.567476 
83 1 0 0.269033 0.435699 
84 2 0.5 0.269033 0.435699 
85 2 0 0.236329 0.486329 
86 1 0.5 0.236329 0.486329 
87 1 0 0.237295 0.570628 
88 2 0.5 0.237295 0.570628 
107 2 0 0.321061 0.404394 
108 1 0.5 0.321061 0.404394 
109 1 0 0.351484 0.51815 
110 2 0.5 0.351484 0.51815 
111 2 0 0.331241 0.581241 
112 1 0.5 0.331241 0.581241 
131 1 0 0.409269 0.409269 
132 2 0.5 0.409269 0.409269 
133 2 0 0.414137 0.49747 
134 1 0.5 0.414137 0.49747 
135 1 0 0.423287 0.589953 
136 2 0.5 0.423287 0.589953 
155 2 0 0.49139 0.408056 
156 1 0.5 0.49139 0.408056 
157 1 0 0.516432 0.516432 
158 2 0.5 0.516432 0.516432 
159 2 0 0.486627 0.569961 
160 1 0.5 0.486627 0.569961 
179 1 0 0.568524 0.401857 
180 2 0.5 0.568524 0.401857 
181 2 0 0.559723 0.47639 
182 1 0.5 0.559723 0.47639 
183 1 0 0.557657 0.557657 
184 2 0.5 0.557657 0.557657 
205 1 0 0.689825 0.523159 
206 2 0.5 0.689825 0.523159 
227 1 0 0.764911 0.431577 
228 2 0.5 0.764911 0.431577 
229 2 0 0.769103 0.519103 
230 1 0.5 0.769103 0.519103 
231 1 0 0.729319 0.562652 
232 2 0.5 0.729319 0.562652 
11 2 0 0.989734 0.406401 
12 1 0.5 0.989734 0.406401 
13 1 0 0.995323 0.495323 
14 2 0.5 0.995323 0.495323 
251 2 0 0.839869 0.423202 
252 1 0.5 0.839869 0.423202 
253 1 0 0.837413 0.50408 
254 2 0.5 0.837413 0.50408 
255 2 0 0.809945 0.559945 
256 1 0.5 0.809945 0.559945 
275 1 0 0.902215 0.402215 
276 2 0.5 0.902215 0.402215 
277 2 0 0.893627 0.476961 
278 1 0.5 0.893627 0.476961 
279 1 0 0.931224 0.597891 
280 2 0.5 0.931224 0.597891 
17 1 0 0.0139061 0.680573 
18 2 0.5 0.0139061 0.680573 
19 2 0 0.0216793 0.771679 
20 1 0.5 0.0216793 0.771679 
41 2 0 0.0934816 0.676815 
42 1 0.5 0.0934816 0.676815 
43 1 0 0.0868514 0.753518 
44 2 0.5 0.0868514 0.753518 
65 1 0 0.144226 0.644226 
66 2 0.5 0.144226 0.644226 
67 2 0 0.147646 0.730979 
68 1 0.5 0.147646 0.730979 
89 2 0 0.245442 0.662108 
90 1 0.5 0.245442 0.662108 
91 1 0 0.277061 0.777061 
92 2 0.5 0.277061 0.777061 
113 1 0 0.323958 0.657291 
114 2 0.5 0.323958 0.657291 
115 2 0 0.32189 0.738557 
116 1 0.5 0.32189 0.738557 
137 2 0 0.431464 0.681464 
138 1 0.5 0.431464 0.681464 
139 1 0 0.415742 0.749075 
140 2 0.5 0.415742 0.749075 
161 1 0 0.490591 0.657257 
162 2 0.5 0.490591 0.657257 
163 2 0 0.499378 0.749378 
164 1 0.5 0.499378 0.749378 
185 2 0 0.572341 0.655674 
186 1 0.5 0.572341 0.655674 
187 1 0 0.566778 0.733445 
188 2 0.5 0.566778 0.733445 
207 2 0 0.684105 0.600771 
208 1 0.5 0.684105 0.600771 
209 1 0 0.663792 0.663792 
210 2 0.5 0.663792 0.663792 
211 2 0 0.640096 0.72343 
212 1 0.5 0.640096 0.72343 
233 2 0 0.743938 0.660604 
234 1 0.5 0.743938 0.660604 
235 1 0 0.759679 0.759679 
236 2 0.5 0.759679 0.759679 
257 1 0 0.858428 0.691761 
258 2 0.5 0.858428 0.691761 
259 2 0 0.860233 0.7769 
260 1 0.5 0.860233 0.7769 
281 2 0 0.895785 0.645785 
282 1 0.5 0.895785 0.645785 
283 1 0 0.941801 0.775135 
284 2 0.5 0.941801 0.775135 
21 1 0 0.0155198 0.848853 
22 2 0.5 0.0155198 0.848853 
23 2 0 0.0233468 0.940013 
24 1 0.5 0.0233468 0.940013 
45 2 0 0.0857156 0.835716 
46 1 0.5 0.0857156 0.835716 
47 1 0 0.0910458 0.924379 
48 2 0.5 0.0910458 0.924379 
49 1 0 0.151166 0.9845 
50 2 0.5 0.151166 0.9845 
69 1 0 0.193158 0.859825 
70 2 0.5 0.193158 0.859825 
71 2 0 0.152361 0.902361 
72 1 0.5 0.152361 0.902361 
93 2 0 0.268118 0.851451 
94 1 0.5 0.268118 0.851451 
95 1 0 0.258392 0.925058 
96 2 0.5 0.258392 0.925058 
117 1 0 0.334939 0.834939 
118 2 0.5 0.334939 0.834939 
119 2 0 0.306742 0.890076 
120 1 0.5 0.306742 0.890076 
121 2 0 0.398647 0.98198 
122 1 0.5 0.398647 0.98198 
143 1 0 0.396461 0.896461 
144 2 0.5 0.396461 0.896461 
141 2 0 0.425878 0.842544 
142 1 0.5 0.425878 0.842544 
145 1 0 0.495084 0.995084 
146 2 0.5 0.495084 0.995084 
165 1 0 0.508894 0.842227 
166 2 0.5 0.508894 0.842227 
167 2 0 0.52254 0.939206 
168 1 0.5 0.52254 0.939206 
191 1 0 0.571485 0.904818 
192 2 0.5 0.571485 0.904818 
189 2 0 0.607535 0.857535 
190 1 0.5 0.607535 0.857535 
193 1 0 0.663598 0.996931 
194 2 0.5 0.663598 0.996931 
213 1 0 0.648017 0.814684 
214 2 0.5 0.648017 0.814684 
215 2 0 0.658069 0.908069 
216 1 0.5 0.658069 0.908069 
217 2 0 0.74244 0.99244 
218 1 0.5 0.74244 0.99244 
237 2 0 0.757469 0.840802 
238 1 0.5 0.757469 0.840802 
239 1 0 0.75357 0.920237 
240 2 0.5 0.75357 0.920237 
261 1 0 0.811818 0.811818 
262 2 0.5 0.811818 0.811818 
263 2 0 0.826558 0.909892 
264 1 0.5 0.826558 0.909892 
265 2 0 0.911346 0.994679 
266 1 0.5 0.911346 0.994679 
285 2 0 0.92437 0.841037 
286 1 0.5 0.92437 0.841037 
287 1 0 0.894861 0.894861 
288 2 0.5 0.894861 0.894861 
ITEM: TIMESTEP
3
ITEM: NUMBER OF ATOMS
288
ITEM: BOX BOUNDS pp pp pp
0 4.212
0 25.272
0 25.272
ITEM: ATOMS id type xs ys zs 
1 1 0 0.0119224 0.0119224 
2 2 0.5 0.0119224 0.0119224 
3 2 0 0.00283589 0.0861692 
4 1 0.5 0.00283589 0.0861692 
5 1 0 0.0255481 0.192215 
6 2 0.5 0.0255481 0.192215 
25 2 0 0.104 0.0206671 
26 1 0.5 0.104 0.0206671 
27 1 0 0.103781 0.103781 
28 2 0.5 0.103781 0.103781 
29 2 0 0.0556362 0.13897 
30 1 0.5 0.0556362 0.13897 
51 2 0 0.184268 0.100935 
52 1 0.5 0.184268 0.100935 
53 1 0 0.144211 0.144211 
54 2 0.5 0.144211 0.144211 
73 2 0 0.255042 0.00504193 
74 1 0.5 0.255042 0.00504193 
75 1 0 0.238933 0.0722661 
76 2 0.5 0.238933 0.0722661 
77 2 0 0.277125 0.193792 
78 1 0.5 0.277125 0.193792 
97 1 0 0.353607 0.0202736 
98 2 0.5 0.353607 0.0202736 
99 2 0 0.319505 0.0695047 
100 1 0.5 0.319505 0.0695047 
101 1 0 0.330842 0.164175 
102 2 0.5 0.330842 0.164175 
123 1 0 0.399293 0.0659599 
124 2 0.5 0.399293 0.0659599 
125 2 0 0.417385 0.167385 
126 1 0.5 0.417385 0.167385 
147 2 0 0.510642 0.0939752 
148 1 0.5 0.510642 0.0939752 
149 1 0 0.48593 0.152596 
150 2 0.5 0.48593 0.152596 
169 2 0 0.597564 0.014231 
170 1 0.5 0.597564 0.014231 
173 2 0 0.57532 0.158654 
174 1 0.5 0.57532 0.158654 
171 1 0 0.605435 0.105435 
172 2 0.5 0.605435 0.105435 
195 2 0 0.688243 0.10491 
196 1 0.5 0.688243 0.10491 
197 1 0 0.659278 0.159278 
198 2 0.5 0.659278 0.159278 
219 1 0 0.723941 0.0572746 
220 2 0.5 0.723941 0.0572746 
221 2 0 0.775285 0.191951 
222 1 0.5 0.775285 0.191951 
241 1 0 0.846154 0.0128211 
242 2 0.5 0.846154 0.0128211 
243 2 0 0.82017 0.0701698 
244 1 0.5 0.82017 0.0701698 
245 1 0 0.844197 0.17753 
246 2 0.5 0.844197 0.17753 
267 1 0 0.943155 0.109822 
268 2 0.5 0.943155 0.109822 
269 2 0 0.942015 0.192015 
270 1 0.5 0.942015 0.192015 
7 2 0 0.0212301 0.27123 
8 1 0.5 0.0212301 0.27123 
9 1 0 0.00100897 0.334342 
10 2 0.5 0.00100897 0.334342 
31 1 0 0.0568124 0.223479 
32 2 0.5 0.0568124 0.223479 
33 2 0 0.0915471 0.341547 
34 1 0.5 0.0915471 0.341547 
55 2 0 0.169651 0.252985 
56 1 0.5 0.169651 0.252985 
57 1 0 0.18384 0.350507 
58 2 0.5 0.18384 0.350507 
79 1 0 0.270859 0.270859 
80 2 0.5 0.270859 0.270859 
81 2 0 0.264681 0.348015 
82 1 0.5 0.264681 0.348015 
103 2 0 0.316021 0.232687 
104 1 0.5 0.316021 0.232687 
105 1 0 0.316297 0.316297 
106 2 0.5 0.316297 0.316297 
127 1 0 0.439725 0.273058 
128 2 0.5 0.439725 0.273058 
129 2 0 0.40847 0.325137 
130 1 0.5 0.40847 0.325137 
151 2 0 0.480562 0.230562 
152 1 0.5 0.480562 0.230562 
153 1 0 0.511345 0.344678 
154 2 0.5 0.511345 0.344678 
175 1 0 0.576101 0.242767 
176 2 0.5 0.576101 0.242767 
177 2 0 0.58608 0.33608 
178 1 0.5 0.58608 0.33608 
199 2 0 0.645352 0.228685 
200 1 0.5 0.645352 0.228685 
201 1 0 0.658335 0.325001 
202 2 0.5 0.658335 0.325001 
203 2 0 0.644376 0.394376 
204 1 0.5 0.644376 0.394376 
223 1 0 0.771446 0.271446 
224 2 0.5 0.771446 0.271446 
225 2 0 0.726943 0.310277 
226 1 0.5 0.726943 0.310277 
247 2 0 0.806028 0.222695 
248 1 0.5 0.806028 0.222695 
249 1 0 0.822885 0.322885 
250 2 0.5 0.822885 0.322885 
271 1 0 0.930735 0.264069 
272 2 0.5 0.930735 0.264069 
273 2 0 0.902953 0.31962 
274 1 0.5 0.902953 0.31962 
15 2 0 0.0055298 0.588863 
16 1 0.5 0.0055298 0.588863 
35 1 0 0.0981644 0.431498 
36 2 0.5 0.0981644 0.431498 
37 2 0 0.0629217 0.479588 
38 1 0.5 0.0629217 0.479588 
39 1 0 0.0645484 0.564548 
40 2 0.5 0.0645484 0.564548 
59 2 0 0.18255 0.43255 
60 1 0.5 0.18255 0.43255 
61 1 0 0.139797 0.47313 
62 2 0.5 0.139797 0.47313 
63 2 0 0.150809 0.567476 
64 1 0.5 0.150809 0.567476 
83 1 0 0.269033 0.435699 
84 2 0.5 0.269033 0.435699 
85 2 0 0.236329 0.486329 
86 1 0.5 0.236329 0.486329 
87 1 0 0.237295 0.570628 
88 2 0.5 0.237295 0.570628 
107 2 0 0.321061 0.404394 
108 1 0.5 0.321061 0.404394 
109 1 0 0.351484 0.51815 
110 2 0.5 0.351484 0.51815 
111 2 0 0.331241 0.581241 
112 1 0.5 0.331241 0.581241 
131 1 0 0.409269 0.409269 
132 2 0.5 0.409269 0.409269 
133 2 0 0.414137 0.49747 
134 1 0.5 0.414137 0.49747 
135 1 0 0.423287 0.589953 
136 2 0.5 0.423287 0.589953 
155 2 0 0.49139 0.408056 
156 1 0.5 0.49139 0.408056 
157 1 0 0.516432 0.516432 
158 2 0.5 0.516432 0.516432 
159 2 0 0.486627 0.569961 
160 1 0.5 0.486627 0.569961 
179 1 0 0.568524 0.401857 
180 2 0.5 0.568524 0.401857 
181 2 0 0.559723 0.47639 
182 1 0.5 0.559723 0.47639 
183 1 0 0.557657 0.557657 
184 2 0.5 0.557657 0.557657 
205 1 0 0.689825 0.523159 
206 2 0.5 0.689825 0.523159 
227 1 0 0.764911 0.431577 
228 2 0.5 0.764911 0.431577 
229 2 0 0.769103 0.519103 
230 1 0.5 0.769103 0.519103 
231 1 0 0.729319 0.562652 
232 2 0.5 0.729319 0.562652 
11 2 0 0.989734 0.406401 
12 1 0.5 0.989734 0.406401 
13 1 0 0.995323 0.495323 
14 2 0.5 0.995323 0.495323 
251 2 0 0.839869 0.423202 
252 1 0.5 0.839869 0.423202 
253 1 0 0.837413 0.50408 
254 2 0.5 0.837413 0.50408 
255 2 0 0.809945 0.559945 
256 1 0.5 0.809945 0.559945 
275 1 0 0.902215 0.402215 
276 2 0.5 0.902215 0.402215 
277 2 0 0.893627 0.476961 
278 1 0.5 0.893627 0.476961 
279 1 0 0.931224 0.597891 
280 2 0.5 0.931224 0.597891 
17 1 0 0.0139061 0.680573 
18 2 0.5 0.0139061 0.680573 
19 2 0 0.0216793 0.771679 
20 1 0.5 0.0216793 0.771679 
41 2 0 0.0934816 0.676815 
42 1 0.5 0.0934816 0.676815 
43 1 0 0.0868514 0.753518 
44 2 0.5 0.0868514 0.753518 
65 1 0 0.144226 0.644226 
66 2 0.5 0.144226 0.644226 
67 2 0 0.147646 0.730979 
68 1 0.5 0.147646 0.730979 
89 2 0 0.245442 0.662108 
90 1 0.5 0.245442 0.662108 
91 1 0 0.277061 0.777061 
92 2 0.5 0.277061 0.777061 
113 1 0 0.323958 0.657291 
114 2 0.5 0.323958 0.657291 
115 2 0 0.32189 0.738557 
116 1 0.5 0.32189 0.738557 
137 2 0 0.431464 0.681464 
138 1 0.5 0.431464 0.681464 
139 1 0 0.415742 0.749075 
140 2 0.5 0.415742 0.749075 
161 1 0 0.490591 0.657257 