ITEM: TIMESTEP
0
ITEM: NUMBER OF ATOMS
72
ITEM: BOX BOUNDS pp pp pp
0 4.212
0 12.636
0 12.636
ITEM: ATOMS id type xs ys zs 
1 1 0 0 0 
2 2 0.5 0 0 
3 2 0 0 0.166667 
4 1 0.5 0 0.166667 
5 1 0 0 0.333333 
6 2 0.5 0 0.333333 
7 2 0 0 0.5 
8 1 0.5 0 0.5 
9 1 0 0 0.666667 
10 2 0.5 0 0.666667 
11 2 0 0 0.833333 
12 1 0.5 0 0.833333 
13 2 0 0.166667 0 
14 1 0.5 0.166667 0 
15 1 0 0.166667 0.166667 
16 2 0.5 0.166667 0.166667 
17 2 0 0.166667 0.333333 
18 1 0.5 0.166667 0.333333 
19 1 0 0.166667 0.5 
20 2 0.5 0.166667 0.5 
21 2 0 0.166667 0.666667 
22 1 0.5 0.166667 0.666667 
23 1 0 0.166667 0.833333 
24 2 0.5 0.166667 0.833333 
25 1 0 0.333333 0 
26 2 0.5 0.333333 0 
27 2 0 0.333333 0.166667 
28 1 0.5 0.333333 0.166667 
29 1 0 0.333333 0.333333 
30 2 0.5 0.333333 0.333333 
31 2 0 0.333333 0.5 
32 1 0.5 0.333333 0.5 
33 1 0 0.333333 0.666667 
34 2 0.5 0.333333 0.666667 
35 2 0 0.333333 0.833333 
36 1 0.5 0.333333 0.833333 
37 2 0 0.5 0 
38 1 0.5 0.5 0 
39 1 0 0.5 0.166667 
40 2 0.5 0.5 0.166667 
41 2 0 0.5 0.333333 
42 1 0.5 0.5 0.333333 
43 1 0 0.5 0.5 
44 2 0.5 0.5 0.5 
45 2 0 0.5 0.666667 
46 1 0.5 0.5 0.666667 
47 1 0 0.5 0.833333 
48 2 0.5 0.5 0.833333 
49 1 0 0.666667 0 
50 2 0.5 0.666667 0 
51 2 0 0.666667 0.166667 
52 1 0.5 0.666667 0.166667 
53 1 0 0.666667 0.333333 
54 2 0.5 0.666667 0.333333 
55 2 0 0.666667 0.5 
56 1 0.5 0.666667 0.5 
57 1 0 0.666667 0.666667 
58 2 0.5 0.666667 0.666667 
59 2 0 0.666667 0.833333 
60 1 0.5 0.666667 0.833333 
61 2 0 0.833333 0 
62 1 0.5 0.833333 0 
63 1 0 0.833333 0.166667 
64 2 0.5 0.833333 0.166667 
65 2 0 0.833333 0.333333 
66 1 0.5 0.833333 0.333333 
67 1 0 0.833333 0.5 
68 2 0.5 0.833333 0.5 
69 2 0 0.833333 0.666667 
70 1 0.5 0.833333 0.666667 
71 1 0 0.833333 0.833333 
72 2 0.5 0.833333 0.833333 
