ITEM: TIMESTEP
0
ITEM: NUMBER OF ATOMS
5508
ITEM: BOX BOUNDS pp pp pp
0 4.212
-200 200
-200 200
ITEM: ATOMS id type xs ys zs 
1 1 0 0.305195 0.390488 
2 2 0.5 0.305195 0.390488 
3 2 0 0.31046 0.390488 
4 1 0.5 0.31046 0.390488 
1985 2 0 0.300728 0.398167 
1986 1 0.5 0.300728 0.398167 
5 1 0 0.315725 0.390488 
6 2 0.5 0.315725 0.390488 
7 2 0 0.315725 0.395753 
8 1 0.5 0.315725 0.395753 
9 1 0 0.32099 0.395753 
10 2 0.5 0.32099 0.395753 
11 2 0 0.32099 0.390488 
12 1 0.5 0.32099 0.390488 
13 1 0 0.326255 0.390488 
14 2 0.5 0.326255 0.390488 
19 2 0 0.326255 0.395753 
20 1 0.5 0.326255 0.395753 
21 1 0 0.33152 0.395753 
22 2 0.5 0.33152 0.395753 
23 2 0 0.33152 0.390488 
24 1 0.5 0.33152 0.390488 
25 1 0 0.336785 0.390488 
26 2 0.5 0.336785 0.390488 
33 2 0 0.336785 0.395753 
34 1 0.5 0.336785 0.395753 
35 1 0 0.34205 0.395753 
36 2 0.5 0.34205 0.395753 
37 2 0 0.34205 0.390488 
38 1 0.5 0.34205 0.390488 
39 1 0 0.347315 0.390488 
40 2 0.5 0.347315 0.390488 
49 2 0 0.347315 0.395753 
50 1 0.5 0.347315 0.395753 
51 1 0 0.35258 0.395753 
52 2 0.5 0.35258 0.395753 
53 2 0 0.35258 0.390488 
54 1 0.5 0.35258 0.390488 
55 1 0 0.357845 0.390488 
56 2 0.5 0.357845 0.390488 
69 2 0 0.357845 0.395753 
70 1 0.5 0.357845 0.395753 
71 1 0 0.36311 0.395753 
72 2 0.5 0.36311 0.395753 
73 2 0 0.36311 0.390488 
74 1 0.5 0.36311 0.390488 
75 1 0 0.368375 0.390488 
76 2 0.5 0.368375 0.390488 
91 2 0 0.368375 0.395753 
92 1 0.5 0.368375 0.395753 
93 1 0 0.37364 0.395753 
94 2 0.5 0.37364 0.395753 
95 2 0 0.37364 0.390488 
96 1 0.5 0.37364 0.390488 
97 1 0 0.378905 0.390488 
98 2 0.5 0.378905 0.390488 
115 2 0 0.378905 0.395753 
116 1 0.5 0.378905 0.395753 
117 1 0 0.38417 0.395753 
118 2 0.5 0.38417 0.395753 
119 2 0 0.38417 0.390488 
120 1 0.5 0.38417 0.390488 
121 1 0 0.389435 0.390488 
122 2 0.5 0.389435 0.390488 
143 2 0 0.389435 0.395753 
144 1 0.5 0.389435 0.395753 
145 1 0 0.3947 0.395753 
146 2 0.5 0.3947 0.395753 
147 2 0 0.3947 0.390488 
148 1 0.5 0.3947 0.390488 
149 1 0 0.399965 0.390488 
150 2 0.5 0.399965 0.390488 
173 2 0 0.399965 0.395753 
174 1 0.5 0.399965 0.395753 
175 1 0 0.40523 0.395753 
176 2 0.5 0.40523 0.395753 
177 2 0 0.40523 0.390488 
178 1 0.5 0.40523 0.390488 
179 1 0 0.410495 0.390488 
180 2 0.5 0.410495 0.390488 
205 2 0 0.410495 0.395753 
206 1 0.5 0.410495 0.395753 
207 1 0 0.41576 0.395753 
208 2 0.5 0.41576 0.395753 
209 2 0 0.41576 0.390488 
210 1 0.5 0.41576 0.390488 
211 1 0 0.421025 0.390488 
212 2 0.5 0.421025 0.390488 
241 2 0 0.421025 0.395753 
242 1 0.5 0.421025 0.395753 
243 1 0 0.42629 0.395753 
244 2 0.5 0.42629 0.395753 
245 2 0 0.42629 0.390488 
246 1 0.5 0.42629 0.390488 
247 1 0 0.431555 0.390488 
248 2 0.5 0.431555 0.390488 
279 2 0 0.431555 0.395753 
280 1 0.5 0.431555 0.395753 
281 1 0 0.43682 0.395753 
282 2 0.5 0.43682 0.395753 
283 2 0 0.43682 0.390488 
284 1 0.5 0.43682 0.390488 
285 1 0 0.442085 0.390488 
286 2 0.5 0.442085 0.390488 
319 2 0 0.442085 0.395753 
320 1 0.5 0.442085 0.395753 
321 1 0 0.44735 0.395753 
322 2 0.5 0.44735 0.395753 
323 2 0 0.44735 0.390488 
324 1 0.5 0.44735 0.390488 
325 1 0 0.452615 0.390488 
326 2 0.5 0.452615 0.390488 
363 2 0 0.452615 0.395753 
364 1 0.5 0.452615 0.395753 
365 1 0 0.45788 0.395753 
366 2 0.5 0.45788 0.395753 
367 2 0 0.45788 0.390488 
368 1 0.5 0.45788 0.390488 
369 1 0 0.463145 0.390488 
370 2 0.5 0.463145 0.390488 
411 2 0 0.463145 0.395753 
412 1 0.5 0.463145 0.395753 
413 1 0 0.46841 0.395753 
414 2 0.5 0.46841 0.395753 
415 2 0 0.46841 0.390488 
416 1 0.5 0.46841 0.390488 
417 1 0 0.473675 0.390488 
418 2 0.5 0.473675 0.390488 
461 2 0 0.473675 0.395753 
462 1 0.5 0.473675 0.395753 
463 1 0 0.47894 0.395753 
464 2 0.5 0.47894 0.395753 
465 2 0 0.47894 0.390488 
466 1 0.5 0.47894 0.390488 
467 1 0 0.484205 0.390488 
468 2 0.5 0.484205 0.390488 
513 2 0 0.484205 0.395753 
514 1 0.5 0.484205 0.395753 
515 1 0 0.48947 0.395753 
516 2 0.5 0.48947 0.395753 
517 2 0 0.48947 0.390488 
518 1 0.5 0.48947 0.390488 
519 1 0 0.494735 0.390488 
520 2 0.5 0.494735 0.390488 
569 2 0 0.494735 0.395753 
570 1 0.5 0.494735 0.395753 
571 1 0 0.5 0.395753 
572 2 0.5 0.5 0.395753 
573 2 0 0.5 0.390488 
574 1 0.5 0.5 0.390488 
575 1 0 0.505265 0.390488 
576 2 0.5 0.505265 0.390488 
627 2 0 0.505265 0.395753 
628 1 0.5 0.505265 0.395753 
629 1 0 0.51053 0.395753 
630 2 0.5 0.51053 0.395753 
631 2 0 0.51053 0.390488 
632 1 0.5 0.51053 0.390488 
633 1 0 0.515795 0.390488 
634 2 0.5 0.515795 0.390488 
687 2 0 0.515795 0.395753 
688 1 0.5 0.515795 0.395753 
689 1 0 0.52106 0.395753 
690 2 0.5 0.52106 0.395753 
691 2 0 0.52106 0.390488 
692 1 0.5 0.52106 0.390488 
693 1 0 0.526325 0.390488 
694 2 0.5 0.526325 0.390488 
751 2 0 0.526325 0.395753 
752 1 0.5 0.526325 0.395753 
753 1 0 0.53159 0.395753 
754 2 0.5 0.53159 0.395753 
755 2 0 0.53159 0.390488 
756 1 0.5 0.53159 0.390488 
757 1 0 0.536855 0.390488 
758 2 0.5 0.536855 0.390488 
817 2 0 0.536855 0.395753 
818 1 0.5 0.536855 0.395753 
819 1 0 0.54212 0.395753 
820 2 0.5 0.54212 0.395753 
821 2 0 0.54212 0.390488 
822 1 0.5 0.54212 0.390488 
823 1 0 0.547385 0.390488 
824 2 0.5 0.547385 0.390488 
885 2 0 0.547385 0.395753 
886 1 0.5 0.547385 0.395753 
887 1 0 0.55265 0.395753 
888 2 0.5 0.55265 0.395753 
889 2 0 0.55265 0.390488 
890 1 0.5 0.55265 0.390488 
891 1 0 0.557915 0.390488 
892 2 0.5 0.557915 0.390488 
957 2 0 0.557915 0.395753 
958 1 0.5 0.557915 0.395753 
959 1 0 0.56318 0.395753 
960 2 0.5 0.56318 0.395753 
961 2 0 0.56318 0.390488 
962 1 0.5 0.56318 0.390488 
963 1 0 0.568445 0.390488 
964 2 0.5 0.568445 0.390488 
1031 2 0 0.568445 0.395753 
1032 1 0.5 0.568445 0.395753 
1033 1 0 0.57371 0.395753 
1034 2 0.5 0.57371 0.395753 
1035 2 0 0.57371 0.390488 
1036 1 0.5 0.57371 0.390488 
1037 1 0 0.578975 0.390488 
1038 2 0.5 0.578975 0.390488 
1107 2 0 0.578975 0.395753 
1108 1 0.5 0.578975 0.395753 
1109 1 0 0.58424 0.395753 
1110 2 0.5 0.58424 0.395753 
1111 2 0 0.58424 0.390488 
1112 1 0.5 0.58424 0.390488 
1113 1 0 0.589505 0.390488 
1114 2 0.5 0.589505 0.390488 
1187 2 0 0.589505 0.395753 
1188 1 0.5 0.589505 0.395753 
1189 1 0 0.59477 0.395753 
1190 2 0.5 0.59477 0.395753 
1191 2 0 0.59477 0.390488 
1192 1 0.5 0.59477 0.390488 
1193 1 0 0.600035 0.390488 
1194 2 0.5 0.600035 0.390488 
1271 2 0 0.600035 0.395753 
1272 1 0.5 0.600035 0.395753 
1273 1 0 0.6053 0.395753 
1274 2 0.5 0.6053 0.395753 
1275 2 0 0.6053 0.390488 
1276 1 0.5 0.6053 0.390488 
1277 1 0 0.610565 0.390488 
1278 2 0.5 0.610565 0.390488 
1357 2 0 0.610565 0.395753 
1358 1 0.5 0.610565 0.395753 
1359 1 0 0.61583 0.395753 
1360 2 0.5 0.61583 0.395753 
1361 2 0 0.61583 0.390488 
1362 1 0.5 0.61583 0.390488 
1363 1 0 0.621095 0.390488 
1364 2 0.5 0.621095 0.390488 
1445 2 0 0.621095 0.395753 
1446 1 0.5 0.621095 0.395753 
1447 1 0 0.62636 0.395753 
1448 2 0.5 0.62636 0.395753 
1449 2 0 0.62636 0.390488 
1450 1 0.5 0.62636 0.390488 
1451 1 0 0.631625 0.390488 
1452 2 0.5 0.631625 0.390488 
1537 2 0 0.631625 0.395753 
1538 1 0.5 0.631625 0.395753 
1539 1 0 0.63689 0.395753 
1540 2 0.5 0.63689 0.395753 
1541 2 0 0.63689 0.390488 
1542 1 0.5 0.63689 0.390488 
1543 1 0 0.642155 0.390488 
1544 2 0.5 0.642155 0.390488 
1623 2 0 0.642155 0.395753 
1624 1 0.5 0.642155 0.395753 
1625 1 0 0.64742 0.395753 
1626 2 0.5 0.64742 0.395753 
1627 2 0 0.64742 0.390488 
1628 1 0.5 0.64742 0.390488 
1629 1 0 0.652685 0.390488 
1630 2 0.5 0.652685 0.390488 
1697 2 0 0.652685 0.395753 
1698 1 0.5 0.652685 0.395753 
1699 1 0 0.65795 0.395753 
1700 2 0.5 0.65795 0.395753 
1701 2 0 0.65795 0.390488 
1702 1 0.5 0.65795 0.390488 
1703 1 0 0.663215 0.390488 
1704 2 0.5 0.663215 0.390488 
1763 2 0 0.663215 0.395753 
1764 1 0.5 0.663215 0.395753 
1765 1 0 0.66848 0.395753 
1766 2 0.5 0.66848 0.395753 
1767 2 0 0.66848 0.390488 
1768 1 0.5 0.66848 0.390488 
1769 1 0 0.673745 0.390488 
1770 2 0.5 0.673745 0.390488 
1821 2 0 0.673745 0.395753 
1822 1 0.5 0.673745 0.395753 
1823 1 0 0.67901 0.395753 
1824 2 0.5 0.67901 0.395753 
1825 2 0 0.67901 0.390488 
1826 1 0.5 0.67901 0.390488 
1827 1 0 0.684275 0.390488 
1828 2 0.5 0.684275 0.390488 
1871 2 0 0.684275 0.395753 
1872 1 0.5 0.684275 0.395753 
1873 1 0 0.68954 0.395753 
1874 2 0.5 0.68954 0.395753 
1875 2 0 0.68954 0.390488 
1876 1 0.5 0.68954 0.390488 
1877 1 0 0.694805 0.390488 
1878 2 0.5 0.694805 0.390488 
1909 2 0 0.694805 0.395753 
1910 1 0.5 0.694805 0.395753 
1911 1 0 0.70007 0.395753 
1912 2 0.5 0.70007 0.395753 
1913 2 0 0.70007 0.390488 
1914 1 0.5 0.70007 0.390488 
1915 1 0 0.705335 0.390488 
1916 2 0.5 0.705335 0.390488 
1939 2 0 0.705335 0.395753 
1940 1 0.5 0.705335 0.395753 
1941 1 0 0.7106 0.395753 
1942 2 0.5 0.7106 0.395753 
1943 2 0 0.7106 0.390488 
1944 1 0.5 0.7106 0.390488 
1945 1 0 0.715865 0.390488 
1946 2 0.5 0.715865 0.390488 
1961 2 0 0.715865 0.395753 
1962 1 0.5 0.715865 0.395753 
1963 1 0 0.72113 0.395753 
1964 2 0.5 0.72113 0.395753 
1965 2 0 0.72113 0.390488 
1966 1 0.5 0.72113 0.390488 
1967 1 0 0.726395 0.390488 
1968 2 0.5 0.726395 0.390488 
1975 2 0 0.726395 0.395753 
1976 1 0.5 0.726395 0.395753 
1977 1 0 0.73166 0.395753 
1978 2 0.5 0.73166 0.395753 
1979 2 0 0.73166 0.390488 
1980 1 0.5 0.73166 0.390488 
1981 1 0 0.736925 0.390488 
1982 2 0.5 0.736925 0.390488 
1983 2 0 0.74219 0.390488 
1984 1 0.5 0.74219 0.390488 
3747 1 0 0.746657 0.398167 
3748 2 0.5 0.746657 0.398167 
1987 1 0 0.303689 0.40252 
1988 2 0.5 0.303689 0.40252 
1989 2 0 0.306651 0.406873 
1990 1 0.5 0.306651 0.406873 
1991 1 0 0.311004 0.403912 
1992 2 0.5 0.311004 0.403912 
1995 1 0 0.309613 0.411226 
1996 2 0.5 0.309613 0.411226 
15 2 0 0.32099 0.401018 
16 1 0.5 0.32099 0.401018 
1993 2 0 0.313966 0.408265 
1994 1 0.5 0.313966 0.408265 
1999 1 0 0.318319 0.405303 
2000 2 0.5 0.318319 0.405303 
2001 2 0 0.32128 0.409656 
2002 1 0.5 0.32128 0.409656 
17 1 0 0.326255 0.401018 
18 2 0.5 0.326255 0.401018 
27 1 0 0.33152 0.406283 
28 2 0.5 0.33152 0.406283 
29 2 0 0.33152 0.401018 
30 1 0.5 0.33152 0.401018 
31 1 0 0.336785 0.401018 
32 2 0.5 0.336785 0.401018 
41 2 0 0.336785 0.406283 
42 1 0.5 0.336785 0.406283 
2011 2 0 0.328595 0.411048 
2012 1 0.5 0.328595 0.411048 
43 1 0 0.34205 0.406283 
44 2 0.5 0.34205 0.406283 
45 2 0 0.34205 0.401018 
46 1 0.5 0.34205 0.401018 
47 1 0 0.347315 0.401018 
48 2 0.5 0.347315 0.401018 
57 2 0 0.34205 0.411548 
58 1 0.5 0.34205 0.411548 
59 1 0 0.347315 0.411548 
60 2 0.5 0.347315 0.411548 
61 2 0 0.347315 0.406283 
62 1 0.5 0.347315 0.406283 
63 1 0 0.35258 0.406283 
64 2 0.5 0.35258 0.406283 
65 2 0 0.35258 0.401018 
66 1 0.5 0.35258 0.401018 
67 1 0 0.357845 0.401018 
68 2 0.5 0.357845 0.401018 
79 2 0 0.35258 0.411548 
80 1 0.5 0.35258 0.411548 
81 1 0 0.357845 0.411548 
82 2 0.5 0.357845 0.411548 
83 2 0 0.357845 0.406283 
84 1 0.5 0.357845 0.406283 
85 1 0 0.36311 0.406283 
86 2 0.5 0.36311 0.406283 
87 2 0 0.36311 0.401018 
88 1 0.5 0.36311 0.401018 
89 1 0 0.368375 0.401018 
90 2 0.5 0.368375 0.401018 
103 2 0 0.36311 0.411548 
104 1 0.5 0.36311 0.411548 
105 1 0 0.368375 0.411548 
106 2 0.5 0.368375 0.411548 
107 2 0 0.368375 0.406283 
108 1 0.5 0.368375 0.406283 
109 1 0 0.37364 0.406283 
110 2 0.5 0.37364 0.406283 
111 2 0 0.37364 0.401018 
112 1 0.5 0.37364 0.401018 
131 2 0 0.37364 0.411548 
132 1 0.5 0.37364 0.411548 
113 1 0 0.378905 0.401018 
114 2 0.5 0.378905 0.401018 
133 1 0 0.378905 0.411548 
134 2 0.5 0.378905 0.411548 
135 2 0 0.378905 0.406283 
136 1 0.5 0.378905 0.406283 
137 1 0 0.38417 0.406283 
138 2 0.5 0.38417 0.406283 
139 2 0 0.38417 0.401018 
140 1 0.5 0.38417 0.401018 
161 2 0 0.38417 0.411548 
162 1 0.5 0.38417 0.411548 
141 1 0 0.389435 0.401018 
142 2 0.5 0.389435 0.401018 
163 1 0 0.389435 0.411548 
164 2 0.5 0.389435 0.411548 
165 2 0 0.389435 0.406283 
166 1 0.5 0.389435 0.406283 
167 1 0 0.3947 0.406283 
168 2 0.5 0.3947 0.406283 
169 2 0 0.3947 0.401018 
170 1 0.5 0.3947 0.401018 
171 1 0 0.399965 0.401018 
172 2 0.5 0.399965 0.401018 
193 2 0 0.3947 0.411548 
194 1 0.5 0.3947 0.411548 
195 1 0 0.399965 0.411548 
196 2 0.5 0.399965 0.411548 
197 2 0 0.399965 0.406283 
198 1 0.5 0.399965 0.406283 
199 1 0 0.40523 0.406283 
200 2 0.5 0.40523 0.406283 
201 2 0 0.40523 0.401018 
202 1 0.5 0.40523 0.401018 
203 1 0 0.410495 0.401018 
204 2 0.5 0.410495 0.401018 
229 2 0 0.40523 0.411548 
230 1 0.5 0.40523 0.411548 
231 1 0 0.410495 0.411548 
232 2 0.5 0.410495 0.411548 
233 2 0 0.410495 0.406283 
234 1 0.5 0.410495 0.406283 
235 1 0 0.41576 0.406283 
236 2 0.5 0.41576 0.406283 
237 2 0 0.41576 0.401018 
238 1 0.5 0.41576 0.401018 
239 1 0 0.421025 0.401018 
240 2 0.5 0.421025 0.401018 
267 2 0 0.41576 0.411548 
268 1 0.5 0.41576 0.411548 
269 1 0 0.421025 0.411548 
270 2 0.5 0.421025 0.411548 
271 2 0 0.421025 0.406283 
272 1 0.5 0.421025 0.406283 
273 1 0 0.42629 0.406283 
274 2 0.5 0.42629 0.406283 
275 2 0 0.42629 0.401018 
276 1 0.5 0.42629 0.401018 
277 1 0 0.431555 0.401018 
278 2 0.5 0.431555 0.401018 
307 2 0 0.42629 0.411548 
308 1 0.5 0.42629 0.411548 
309 1 0 0.431555 0.411548 
310 2 0.5 0.431555 0.411548 
311 2 0 0.431555 0.406283 
312 1 0.5 0.431555 0.406283 
313 1 0 0.43682 0.406283 
314 2 0.5 0.43682 0.406283 
315 2 0 0.43682 0.401018 
316 1 0.5 0.43682 0.401018 
351 2 0 0.43682 0.411548 
352 1 0.5 0.43682 0.411548 
317 1 0 0.442085 0.401018 
318 2 0.5 0.442085 0.401018 
353 1 0 0.442085 0.411548 
354 2 0.5 0.442085 0.411548 
355 2 0 0.442085 0.406283 
356 1 0.5 0.442085 0.406283 
357 1 0 0.44735 0.406283 
358 2 0.5 0.44735 0.406283 
359 2 0 0.44735 0.401018 
360 1 0.5 0.44735 0.401018 
399 2 0 0.44735 0.411548 
400 1 0.5 0.44735 0.411548 
361 1 0 0.452615 0.401018 
362 2 0.5 0.452615 0.401018 
401 1 0 0.452615 0.411548 
402 2 0.5 0.452615 0.411548 
403 2 0 0.452615 0.406283 
404 1 0.5 0.452615 0.406283 
405 1 0 0.45788 0.406283 
406 2 0.5 0.45788 0.406283 
407 2 0 0.45788 0.401018 
408 1 0.5 0.45788 0.401018 
449 2 0 0.45788 0.411548 
450 1 0.5 0.45788 0.411548 
409 1 0 0.463145 0.401018 
410 2 0.5 0.463145 0.401018 
451 1 0 0.463145 0.411548 
452 2 0.5 0.463145 0.411548 
453 2 0 0.463145 0.406283 
454 1 0.5 0.463145 0.406283 
455 1 0 0.46841 0.406283 
456 2 0.5 0.46841 0.406283 
457 2 0 0.46841 0.401018 
458 1 0.5 0.46841 0.401018 
459 1 0 0.473675 0.401018 
460 2 0.5 0.473675 0.401018 
501 2 0 0.46841 0.411548 
502 1 0.5 0.46841 0.411548 
503 1 0 0.473675 0.411548 
504 2 0.5 0.473675 0.411548 
505 2 0 0.473675 0.406283 
506 1 0.5 0.473675 0.406283 
507 1 0 0.47894 0.406283 
508 2 0.5 0.47894 0.406283 
509 2 0 0.47894 0.401018 
510 1 0.5 0.47894 0.401018 
511 1 0 0.484205 0.401018 
512 2 0.5 0.484205 0.401018 
557 2 0 0.47894 0.411548 
558 1 0.5 0.47894 0.411548 
559 1 0 0.484205 0.411548 
560 2 0.5 0.484205 0.411548 
561 2 0 0.484205 0.406283 
562 1 0.5 0.484205 0.406283 
563 1 0 0.48947 0.406283 
564 2 0.5 0.48947 0.406283 
565 2 0 0.48947 0.401018 
566 1 0.5 0.48947 0.401018 
567 1 0 0.494735 0.401018 
568 2 0.5 0.494735 0.401018 
615 2 0 0.48947 0.411548 
616 1 0.5 0.48947 0.411548 
617 1 0 0.494735 0.411548 
618 2 0.5 0.494735 0.411548 
619 2 0 0.494735 0.406283 
620 1 0.5 0.494735 0.406283 
621 1 0 0.5 0.406283 
622 2 0.5 0.5 0.406283 
623 2 0 0.5 0.401018 
624 1 0.5 0.5 0.401018 
625 1 0 0.505265 0.401018 
626 2 0.5 0.505265 0.401018 
675 2 0 0.5 0.411548 
676 1 0.5 0.5 0.411548 
677 1 0 0.505265 0.411548 
678 2 0.5 0.505265 0.411548 
679 2 0 0.505265 0.406283 
680 1 0.5 0.505265 0.406283 
681 1 0 0.51053 0.406283 
682 2 0.5 0.51053 0.406283 
683 2 0 0.51053 0.401018 
684 1 0.5 0.51053 0.401018 
739 2 0 0.51053 0.411548 
740 1 0.5 0.51053 0.411548 
685 1 0 0.515795 0.401018 
686 2 0.5 0.515795 0.401018 
741 1 0 0.515795 0.411548 
742 2 0.5 0.515795 0.411548 
743 2 0 0.515795 0.406283 
744 1 0.5 0.515795 0.406283 
745 1 0 0.52106 0.406283 
746 2 0.5 0.52106 0.406283 
747 2 0 0.52106 0.401018 
748 1 0.5 0.52106 0.401018 
805 2 0 0.52106 0.411548 
806 1 0.5 0.52106 0.411548 
749 1 0 0.526325 0.401018 
750 2 0.5 0.526325 0.401018 
807 1 0 0.526325 0.411548 
808 2 0.5 0.526325 0.411548 
809 2 0 0.526325 0.406283 
810 1 0.5 0.526325 0.406283 
811 1 0 0.53159 0.406283 
812 2 0.5 0.53159 0.406283 
813 2 0 0.53159 0.401018 
814 1 0.5 0.53159 0.401018 
815 1 0 0.536855 0.401018 
816 2 0.5 0.536855 0.401018 
873 2 0 0.53159 0.411548 
874 1 0.5 0.53159 0.411548 
875 1 0 0.536855 0.411548 
876 2 0.5 0.536855 0.411548 
877 2 0 0.536855 0.406283 
878 1 0.5 0.536855 0.406283 
879 1 0 0.54212 0.406283 
880 2 0.5 0.54212 0.406283 
881 2 0 0.54212 0.401018 
882 1 0.5 0.54212 0.401018 
883 1 0 0.547385 0.401018 
884 2 0.5 0.547385 0.401018 
945 2 0 0.54212 0.411548 
946 1 0.5 0.54212 0.411548 
947 1 0 0.547385 0.411548 
948 2 0.5 0.547385 0.411548 
949 2 0 0.547385 0.406283 
950 1 0.5 0.547385 0.406283 
951 1 0 0.55265 0.406283 
952 2 0.5 0.55265 0.406283 
953 2 0 0.55265 0.401018 
954 1 0.5 0.55265 0.401018 
955 1 0 0.557915 0.401018 
956 2 0.5 0.557915 0.401018 
1019 2 0 0.55265 0.411548 
1020 1 0.5 0.55265 0.411548 
1021 1 0 0.557915 0.411548 
1022 2 0.5 0.557915 0.411548 
1023 2 0 0.557915 0.406283 
1024 1 0.5 0.557915 0.406283 
1025 1 0 0.56318 0.406283 
1026 2 0.5 0.56318 0.406283 
1027 2 0 0.56318 0.401018 
1028 1 0.5 0.56318 0.401018 
1029 1 0 0.568445 0.401018 
1030 2 0.5 0.568445 0.401018 
1095 2 0 0.56318 0.411548 
1096 1 0.5 0.56318 0.411548 
1097 1 0 0.568445 0.411548 
1098 2 0.5 0.568445 0.411548 
1099 2 0 0.568445 0.406283 
1100 1 0.5 0.568445 0.406283 
1101 1 0 0.57371 0.406283 
1102 2 0.5 0.57371 0.406283 
1103 2 0 0.57371 0.401018 
1104 1 0.5 0.57371 0.401018 
1175 2 0 0.57371 0.411548 
1176 1 0.5 0.57371 0.411548 
1105 1 0 0.578975 0.401018 
1106 2 0.5 0.578975 0.401018 
1177 1 0 0.578975 0.411548 
1178 2 0.5 0.578975 0.411548 
1179 2 0 0.578975 0.406283 
1180 1 0.5 0.578975 0.406283 
1181 1 0 0.58424 0.406283 
1182 2 0.5 0.58424 0.406283 
1183 2 0 0.58424 0.401018 
1184 1 0.5 0.58424 0.401018 
1259 2 0 0.58424 0.411548 
1260 1 0.5 0.58424 0.411548 
1185 1 0 0.589505 0.401018 
1186 2 0.5 0.589505 0.401018 
1261 1 0 0.589505 0.411548 
1262 2 0.5 0.589505 0.411548 
1263 2 0 0.589505 0.406283 
1264 1 0.5 0.589505 0.406283 
1265 1 0 0.59477 0.406283 
1266 2 0.5 0.59477 0.406283 
1267 2 0 0.59477 0.401018 
1268 1 0.5 0.59477 0.401018 
1345 2 0 0.59477 0.411548 
1346 1 0.5 0.59477 0.411548 
1269 1 0 0.600035 0.401018 
1270 2 0.5 0.600035 0.401018 
1347 1 0 0.600035 0.411548 
1348 2 0.5 0.600035 0.411548 
1349 2 0 0.600035 0.406283 
1350 1 0.5 0.600035 0.406283 
1351 1 0 0.6053 0.406283 
1352 2 0.5 0.6053 0.406283 
1353 2 0 0.6053 0.401018 
1354 1 0.5 0.6053 0.401018 
1355 1 0 0.610565 0.401018 
1356 2 0.5 0.610565 0.401018 
1433 2 0 0.6053 0.411548 
1434 1 0.5 0.6053 0.411548 
1435 1 0 0.610565 0.411548 
1436 2 0.5 0.610565 0.411548 
1437 2 0 0.610565 0.406283 
1438 1 0.5 0.610565 0.406283 
1439 1 0 0.61583 0.406283 
1440 2 0.5 0.61583 0.406283 
1441 2 0 0.61583 0.401018 
1442 1 0.5 0.61583 0.401018 
1443 1 0 0.621095 0.401018 
1444 2 0.5 0.621095 0.401018 
1525 2 0 0.61583 0.411548 
1526 1 0.5 0.61583 0.411548 
1527 1 0 0.621095 0.411548 
1528 2 0.5 0.621095 0.411548 
1529 2 0 0.621095 0.406283 
1530 1 0.5 0.621095 0.406283 
1531 1 0 0.62636 0.406283 
1532 2 0.5 0.62636 0.406283 
1533 2 0 0.62636 0.401018 
1534 1 0.5 0.62636 0.401018 
1535 1 0 0.631625 0.401018 
1536 2 0.5 0.631625 0.401018 
1611 2 0 0.62636 0.411548 
1612 1 0.5 0.62636 0.411548 
1613 1 0 0.631625 0.411548 
1614 2 0.5 0.631625 0.411548 
1615 2 0 0.631625 0.406283 
1616 1 0.5 0.631625 0.406283 
1617 1 0 0.63689 0.406283 
1618 2 0.5 0.63689 0.406283 
1619 2 0 0.63689 0.401018 
1620 1 0.5 0.63689 0.401018 
1685 2 0 0.63689 0.411548 
1686 1 0.5 0.63689 0.411548 
1621 1 0 0.642155 0.401018 
1622 2 0.5 0.642155 0.401018 
1687 1 0 0.642155 0.411548 
1688 2 0.5 0.642155 0.411548 
1689 2 0 0.642155 0.406283 
1690 1 0.5 0.642155 0.406283 
1691 1 0 0.64742 0.406283 
1692 2 0.5 0.64742 0.406283 
1693 2 0 0.64742 0.401018 
1694 1 0.5 0.64742 0.401018 
1751 2 0 0.64742 0.411548 
1752 1 0.5 0.64742 0.411548 
1695 1 0 0.652685 0.401018 
1696 2 0.5 0.652685 0.401018 
1753 1 0 0.652685 0.411548 
1754 2 0.5 0.652685 0.411548 
1755 2 0 0.652685 0.406283 
1756 1 0.5 0.652685 0.406283 
1757 1 0 0.65795 0.406283 
1758 2 0.5 0.65795 0.406283 
1759 2 0 0.65795 0.401018 
1760 1 0.5 0.65795 0.401018 
1809 2 0 0.65795 0.411548 
1810 1 0.5 0.65795 0.411548 
1761 1 0 0.663215 0.401018 
1762 2 0.5 0.663215 0.401018 
1811 1 0 0.663215 0.411548 
1812 2 0.5 0.663215 0.411548 
1813 2 0 0.663215 0.406283 
1814 1 0.5 0.663215 0.406283 
1815 1 0 0.66848 0.406283 
1816 2 0.5 0.66848 0.406283 
1817 2 0 0.66848 0.401018 
1818 1 0.5 0.66848 0.401018 
1819 1 0 0.673745 0.401018 
1820 2 0.5 0.673745 0.401018 
1859 2 0 0.66848 0.411548 
1860 1 0.5 0.66848 0.411548 
1861 1 0 0.673745 0.411548 
1862 2 0.5 0.673745 0.411548 
1863 2 0 0.673745 0.406283 
1864 1 0.5 0.673745 0.406283 
1865 1 0 0.67901 0.406283 
1866 2 0.5 0.67901 0.406283 
1867 2 0 0.67901 0.401018 
1868 1 0.5 0.67901 0.401018 
1869 1 0 0.684275 0.401018 
1870 2 0.5 0.684275 0.401018 
1897 2 0 0.67901 0.411548 
1898 1 0.5 0.67901 0.411548 
1899 1 0 0.684275 0.411548 
1900 2 0.5 0.684275 0.411548 
1901 2 0 0.684275 0.406283 
1902 1 0.5 0.684275 0.406283 
1903 1 0 0.68954 0.406283 
1904 2 0.5 0.68954 0.406283 
1905 2 0 0.68954 0.401018 
1906 1 0.5 0.68954 0.401018 
1907 1 0 0.694805 0.401018 
1908 2 0.5 0.694805 0.401018 
1927 2 0 0.68954 0.411548 
1928 1 0.5 0.68954 0.411548 
1929 1 0 0.694805 0.411548 
1930 2 0.5 0.694805 0.411548 
1931 2 0 0.694805 0.406283 
1932 1 0.5 0.694805 0.406283 
1933 1 0 0.70007 0.406283 
1934 2 0.5 0.70007 0.406283 
1935 2 0 0.70007 0.401018 
1936 1 0.5 0.70007 0.401018 
1937 1 0 0.705335 0.401018 
1938 2 0.5 0.705335 0.401018 
1949 2 0 0.70007 0.411548 
1950 1 0.5 0.70007 0.411548 
1951 1 0 0.705335 0.411548 
1952 2 0.5 0.705335 0.411548 
1953 2 0 0.705335 0.406283 
1954 1 0.5 0.705335 0.406283 
1955 1 0 0.7106 0.406283 
1956 2 0.5 0.7106 0.406283 
1957 2 0 0.7106 0.401018 
1958 1 0.5 0.7106 0.401018 
1959 1 0 0.715865 0.401018 
1960 2 0.5 0.715865 0.401018 
1969 2 0 0.715865 0.406283 
1970 1 0.5 0.715865 0.406283 
1971 2 0 0.72113 0.401018 
1972 1 0.5 0.72113 0.401018 
3773 1 0 0.71879 0.411048 
3774 2 0.5 0.71879 0.411048 
1973 1 0 0.726395 0.401018 
1974 2 0.5 0.726395 0.401018 
3753 2 0 0.736381 0.403912 
3754 1 0.5 0.736381 0.403912 
3755 1 0 0.733419 0.408265 
3756 2 0.5 0.733419 0.408265 
3761 2 0 0.729066 0.405303 
3762 1 0.5 0.729066 0.405303 
3763 1 0 0.726105 0.409656 
3764 2 0.5 0.726105 0.409656 
3749 2 0 0.743696 0.40252 
3750 1 0.5 0.743696 0.40252 
3751 1 0 0.740734 0.406873 
3752 2 0.5 0.740734 0.406873 
3757 2 0 0.737772 0.411226 
3758 1 0.5 0.737772 0.411226 
1997 2 0 0.312574 0.415579 
1998 1 0.5 0.312574 0.415579 
2003 1 0 0.316927 0.412618 
2004 2 0.5 0.316927 0.412618 
2005 2 0 0.319889 0.416971 
2006 1 0.5 0.319889 0.416971 
2007 1 0 0.315536 0.419932 
2008 2 0.5 0.315536 0.419932 
2009 2 0 0.318497 0.424286 
2010 1 0.5 0.318497 0.424286 
2013 1 0 0.324242 0.414009 
2014 2 0.5 0.324242 0.414009 
2017 1 0 0.32285 0.421324 
2018 2 0.5 0.32285 0.421324 
2015 2 0 0.327203 0.418362 
2016 1 0.5 0.327203 0.418362 
2025 1 0 0.331557 0.415401 
2026 2 0.5 0.331557 0.415401 
2027 2 0 0.334518 0.419754 
2028 1 0.5 0.334518 0.419754 
2029 1 0 0.330165 0.422715 
2030 2 0.5 0.330165 0.422715 
2045 1 0 0.33748 0.424107 
2046 2 0.5 0.33748 0.424107 
2041 1 0 0.338871 0.416792 
2042 2 0.5 0.338871 0.416792 
2043 2 0 0.341833 0.421145 
2044 1 0.5 0.341833 0.421145 
2061 2 0 0.349147 0.422537 
2062 1 0.5 0.349147 0.422537 
77 1 0 0.35258 0.416813 
78 2 0.5 0.35258 0.416813 
99 2 0 0.357845 0.416813 
100 1 0.5 0.357845 0.416813 
101 1 0 0.36311 0.416813 
102 2 0.5 0.36311 0.416813 
123 2 0 0.36311 0.422078 
124 1 0.5 0.36311 0.422078 
125 1 0 0.368375 0.422078 
126 2 0.5 0.368375 0.422078 
127 2 0 0.368375 0.416813 
128 1 0.5 0.368375 0.416813 
129 1 0 0.37364 0.416813 
130 2 0.5 0.37364 0.416813 
153 2 0 0.37364 0.422078 
154 1 0.5 0.37364 0.422078 
155 1 0 0.378905 0.422078 
156 2 0.5 0.378905 0.422078 
157 2 0 0.378905 0.416813 
158 1 0.5 0.378905 0.416813 
159 1 0 0.38417 0.416813 
160 2 0.5 0.38417 0.416813 
185 2 0 0.38417 0.422078 
186 1 0.5 0.38417 0.422078 
187 1 0 0.389435 0.422078 
188 2 0.5 0.389435 0.422078 
189 2 0 0.389435 0.416813 
190 1 0.5 0.389435 0.416813 
191 1 0 0.3947 0.416813 
192 2 0.5 0.3947 0.416813 
221 2 0 0.3947 0.422078 
222 1 0.5 0.3947 0.422078 
223 1 0 0.399965 0.422078 
224 2 0.5 0.399965 0.422078 
225 2 0 0.399965 0.416813 
226 1 0.5 0.399965 0.416813 
227 1 0 0.40523 0.416813 
228 2 0.5 0.40523 0.416813 
259 2 0 0.40523 0.422078 
260 1 0.5 0.40523 0.422078 
261 1 0 0.410495 0.422078 
262 2 0.5 0.410495 0.422078 
263 2 0 0.410495 0.416813 
264 1 0.5 0.410495 0.416813 
265 1 0 0.41576 0.416813 
266 2 0.5 0.41576 0.416813 
299 2 0 0.41576 0.422078 
300 1 0.5 0.41576 0.422078 
301 1 0 0.421025 0.422078 
302 2 0.5 0.421025 0.422078 
303 2 0 0.421025 0.416813 
304 1 0.5 0.421025 0.416813 
305 1 0 0.42629 0.416813 
306 2 0.5 0.42629 0.416813 
343 2 0 0.42629 0.422078 
344 1 0.5 0.42629 0.422078 
345 1 0 0.431555 0.422078 
346 2 0.5 0.431555 0.422078 
347 2 0 0.431555 0.416813 
348 1 0.5 0.431555 0.416813 
349 1 0 0.43682 0.416813 
350 2 0.5 0.43682 0.416813 
391 2 0 0.43682 0.422078 
392 1 0.5 0.43682 0.422078 
393 1 0 0.442085 0.422078 
394 2 0.5 0.442085 0.422078 
395 2 0 0.442085 0.416813 
396 1 0.5 0.442085 0.416813 
397 1 0 0.44735 0.416813 
398 2 0.5 0.44735 0.416813 
441 2 0 0.44735 0.422078 
442 1 0.5 0.44735 0.422078 
443 1 0 0.452615 0.422078 
444 2 0.5 0.452615 0.422078 
445 2 0 0.452615 0.416813 
446 1 0.5 0.452615 0.416813 
447 1 0 0.45788 0.416813 
448 2 0.5 0.45788 0.416813 
493 2 0 0.45788 0.422078 
494 1 0.5 0.45788 0.422078 
495 1 0 0.463145 0.422078 
496 2 0.5 0.463145 0.422078 
497 2 0 0.463145 0.416813 
498 1 0.5 0.463145 0.416813 
499 1 0 0.46841 0.416813 
500 2 0.5 0.46841 0.416813 
549 2 0 0.46841 0.422078 
550 1 0.5 0.46841 0.422078 
551 1 0 0.473675 0.422078 
552 2 0.5 0.473675 0.422078 
553 2 0 0.473675 0.416813 
554 1 0.5 0.473675 0.416813 
555 1 0 0.47894 0.416813 
556 2 0.5 0.47894 0.416813 
607 2 0 0.47894 0.422078 
608 1 0.5 0.47894 0.422078 
609 1 0 0.484205 0.422078 
610 2 0.5 0.484205 0.422078 
611 2 0 0.484205 0.416813 
612 1 0.5 0.484205 0.416813 
613 1 0 0.48947 0.416813 
614 2 0.5 0.48947 0.416813 
667 2 0 0.48947 0.422078 
668 1 0.5 0.48947 0.422078 
669 1 0 0.494735 0.422078 
670 2 0.5 0.494735 0.422078 
671 2 0 0.494735 0.416813 
672 1 0.5 0.494735 0.416813 
673 1 0 0.5 0.416813 
674 2 0.5 0.5 0.416813 
731 2 0 0.5 0.422078 
732 1 0.5 0.5 0.422078 
733 1 0 0.505265 0.422078 
734 2 0.5 0.505265 0.422078 
735 2 0 0.505265 0.416813 
736 1 0.5 0.505265 0.416813 
737 1 0 0.51053 0.416813 
738 2 0.5 0.51053 0.416813 
797 2 0 0.51053 0.422078 
798 1 0.5 0.51053 0.422078 
799 1 0 0.515795 0.422078 
800 2 0.5 0.515795 0.422078 
801 2 0 0.515795 0.416813 
802 1 0.5 0.515795 0.416813 
803 1 0 0.52106 0.416813 
804 2 0.5 0.52106 0.416813 
865 2 0 0.52106 0.422078 
866 1 0.5 0.52106 0.422078 
867 1 0 0.526325 0.422078 
868 2 0.5 0.526325 0.422078 
869 2 0 0.526325 0.416813 
870 1 0.5 0.526325 0.416813 
871 1 0 0.53159 0.416813 
872 2 0.5 0.53159 0.416813 
937 2 0 0.53159 0.422078 
938 1 0.5 0.53159 0.422078 
939 1 0 0.536855 0.422078 
940 2 0.5 0.536855 0.422078 
941 2 0 0.536855 0.416813 
942 1 0.5 0.536855 0.416813 
943 1 0 0.54212 0.416813 
944 2 0.5 0.54212 0.416813 
1011 2 0 0.54212 0.422078 
1012 1 0.5 0.54212 0.422078 
1013 1 0 0.547385 0.422078 
1014 2 0.5 0.547385 0.422078 
1015 2 0 0.547385 0.416813 
1016 1 0.5 0.547385 0.416813 
1017 1 0 0.55265 0.416813 
1018 2 0.5 0.55265 0.416813 
1087 2 0 0.55265 0.422078 
1088 1 0.5 0.55265 0.422078 
1089 1 0 0.557915 0.422078 
1090 2 0.5 0.557915 0.422078 
1091 2 0 0.557915 0.416813 
1092 1 0.5 0.557915 0.416813 
1093 1 0 0.56318 0.416813 
1094 2 0.5 0.56318 0.416813 
1167 2 0 0.56318 0.422078 
1168 1 0.5 0.56318 0.422078 
1169 1 0 0.568445 0.422078 
1170 2 0.5 0.568445 0.422078 
1171 2 0 0.568445 0.416813 
1172 1 0.5 0.568445 0.416813 
1173 1 0 0.57371 0.416813 
1174 2 0.5 0.57371 0.416813 
1251 2 0 0.57371 0.422078 
1252 1 0.5 0.57371 0.422078 
1253 1 0 0.578975 0.422078 
1254 2 0.5 0.578975 0.422078 
1255 2 0 0.578975 0.416813 
1256 1 0.5 0.578975 0.416813 
1257 1 0 0.58424 0.416813 
1258 2 0.5 0.58424 0.416813 
1337 2 0 0.58424 0.422078 
1338 1 0.5 0.58424 0.422078 
1339 1 0 0.589505 0.422078 
1340 2 0.5 0.589505 0.422078 
1341 2 0 0.589505 0.416813 
1342 1 0.5 0.589505 0.416813 
1343 1 0 0.59477 0.416813 
1344 2 0.5 0.59477 0.416813 
1425 2 0 0.59477 0.422078 
1426 1 0.5 0.59477 0.422078 
1427 1 0 0.600035 0.422078 
1428 2 0.5 0.600035 0.422078 
1429 2 0 0.600035 0.416813 
1430 1 0.5 0.600035 0.416813 
1431 1 0 0.6053 0.416813 
1432 2 0.5 0.6053 0.416813 
1517 2 0 0.6053 0.422078 
1518 1 0.5 0.6053 0.422078 
1519 1 0 0.610565 0.422078 
1520 2 0.5 0.610565 0.422078 
1521 2 0 0.610565 0.416813 
1522 1 0.5 0.610565 0.416813 
1523 1 0 0.61583 0.416813 
1524 2 0.5 0.61583 0.416813 
1603 2 0 0.61583 0.422078 
1604 1 0.5 0.61583 0.422078 
1605 1 0 0.621095 0.422078 
1606 2 0.5 0.621095 0.422078 
1607 2 0 0.621095 0.416813 
1608 1 0.5 0.621095 0.416813 
1609 1 0 0.62636 0.416813 
1610 2 0.5 0.62636 0.416813 
1677 2 0 0.62636 0.422078 
1678 1 0.5 0.62636 0.422078 
1679 1 0 0.631625 0.422078 
1680 2 0.5 0.631625 0.422078 
1681 2 0 0.631625 0.416813 
1682 1 0.5 0.631625 0.416813 
1683 1 0 0.63689 0.416813 
1684 2 0.5 0.63689 0.416813 
1743 2 0 0.63689 0.422078 
1744 1 0.5 0.63689 0.422078 
1745 1 0 0.642155 0.422078 
1746 2 0.5 0.642155 0.422078 
1747 2 0 0.642155 0.416813 
1748 1 0.5 0.642155 0.416813 
1749 1 0 0.64742 0.416813 
1750 2 0.5 0.64742 0.416813 
1801 2 0 0.64742 0.422078 
1802 1 0.5 0.64742 0.422078 
1803 1 0 0.652685 0.422078 
1804 2 0.5 0.652685 0.422078 
1805 2 0 0.652685 0.416813 
1806 1 0.5 0.652685 0.416813 
1807 1 0 0.65795 0.416813 
1808 2 0.5 0.65795 0.416813 
1851 2 0 0.65795 0.422078 
1852 1 0.5 0.65795 0.422078 
1853 1 0 0.663215 0.422078 
1854 2 0.5 0.663215 0.422078 
1855 2 0 0.663215 0.416813 
1856 1 0.5 0.663215 0.416813 
1857 1 0 0.66848 0.416813 