LAMMPS (1 Jul 2016-ICMS)
WARNING: OMP_NUM_THREADS environment is not set. (../comm.cpp:90)
  using 1 OpenMP thread(s) per MPI task
#---------------------------WELCOME----------------------------
print "Optimise lattice constant of MgO crystal"
Optimise lattice constant of MgO crystal

#--------------------INITIALISATION----------------------------
units metal		#distance in A and energy in eV
atom_style charge	#specifies what properties to associate with atoms

#cell vectors
variable a equal  4.212
atom_modify     map array sort 0 0.0

region box block 0.0 4.212 0.0 12.636 0.0 12.636 units box
boundary p p p  #PBC in x-direction
create_box 2 box  #generate simulation box
Created orthogonal box = (0 0 0) to (4.212 12.636 12.636)
  1 by 1 by 1 MPI processor grid

# set these parameters
# make sure neigh skin > 2*deltamove

<<<<<<< HEAD
variable iter loop 50            # number of Monte Carlo moves
variable deltaperturb equal 00.0    #0.2 max size of initial perturbation per dim
variable deltamove equal 2.5       #0.1 max size of MC move in one dimension
variable density equal 1.0         # reduced LJ density of atoms on lattice
variable kT equal 1000             # effective T in Boltzmann factor
=======
variable iter loop 100	           # number of Monte Carlo moves
variable deltaperturb equal 0.2   #0.2 max size of initial perturbation per dim
variable deltamove equal 1.0       #0.1 max size of MC move in one dimension
variable kT equal 0.75             # effective T in Boltzmann factor
>>>>>>> fdf96370cf386e06c22b3050f8f4a89c2c8ce0fe
variable seed equal 582783         # RNG seed

#read in coordinates
read_dump testmc.xyz 0 x y z box no add yes format xyz
  orthogonal box = (0 0 0) to (4.212 12.636 12.636)
  0 atoms before read
  72 atoms in snapshot
  0 atoms purged
  0 atoms replaced
  0 atoms trimmed
  72 atoms added
  72 atoms after read

#set up potential
set type 1 charge  2.000000
  36 settings made for charge
set type 2 charge -2.000000
  36 settings made for charge

mass 1 24.305 #specify mass of atoms
mass 2 15.9994 #specify mass of atoms

pair_style hybrid/overlay buck 8.0 coul/long 8.0
pair_coeff 1 2 buck 1284.38000  0.299700  0.000000 8.0
pair_coeff 2 2 buck 9574.95996  0.219200  32.00000 8.0
pair_coeff * * coul/long
kspace_style pppm 1.0e-4
pair_modify table 0

neighbor 2.0 bin
neigh_modify delay 0 every 1 check yes

variable        e equal pe

# run 0 to get energy of perfect lattice
# emin = minimum energy

run             0
WARNING: No fixes defined, atoms won't move (../verlet.cpp:55)
PPPM initialization ...
WARNING: Using polynomial approximation for long-range coulomb (../kspace.cpp:316)
  G vector (1/distance) = 0.400041
  grid = 8 15 15
  stencil order = 5
  estimated absolute RMS force accuracy = 0.000671313
  estimated relative force accuracy = 4.66201e-05
  using double precision FFTs
  3d grid and FFT values/proc = 8228 1800
Neighbor list info ...
  2 neighbor list requests
  update every 1 steps, delay 0 steps, check yes
  max neighbors/atom: 2000, page size: 100000
  master list distance cutoff = 10
  ghost atom cutoff = 10
  binsize = 5 -> bins = 1 3 3
Memory usage per processor = 3.49055 Mbytes
Step Temp E_pair E_mol TotEng Press 
<<<<<<< HEAD
       0            0   -1481.4266            0   -1481.4266    672.06402 
Loop time of 3.09944e-06 on 1 procs for 0 steps with 72 atoms

64.5% CPU use with 1 MPI tasks x 1 OpenMP threads
=======
       0            0   -1461.6701            0   -1461.6701   -110.70088 
Loop time of 1.19209e-06 on 1 procs for 0 steps with 72 atoms

0.0% CPU use with 1 MPI tasks x 1 OpenMP threads
>>>>>>> fdf96370cf386e06c22b3050f8f4a89c2c8ce0fe

MPI task timing breakdown:
Section |  min time  |  avg time  |  max time  |%varavg| %total
---------------------------------------------------------------
Pair    | 0          | 0          | 0          |   0.0 |  0.00
Kspace  | 0          | 0          | 0          |   0.0 |  0.00
Neigh   | 0          | 0          | 0          |   0.0 |  0.00
Comm    | 0          | 0          | 0          |   0.0 |  0.00
Output  | 0          | 0          | 0          |   0.0 |  0.00
Modify  | 0          | 0          | 0          |   0.0 |  0.00
<<<<<<< HEAD
Other   |            | 3.099e-06  |            |       |100.00
=======
Other   |            | 1.192e-06  |            |       |100.00
>>>>>>> fdf96370cf386e06c22b3050f8f4a89c2c8ce0fe

Nlocal:    72 ave 72 max 72 min
Histogram: 1 0 0 0 0 0 0 0 0 0
Nghost:    2403 ave 2403 max 2403 min
Histogram: 1 0 0 0 0 0 0 0 0 0
Neighs:    16560 ave 16560 max 16560 min
Histogram: 1 0 0 0 0 0 0 0 0 0

Total # of neighbors = 16560
Ave neighs/atom = 230
Neighbor list builds = 0
Dangerous builds = 0
variable        emin equal $e
variable        emin equal -1481.42658366852

# disorder the system
# estart = initial energy

variable        z atom z+v_deltaperturb*random(-1.0,1.0,${seed})
variable        z atom z+v_deltaperturb*random(-1.0,1.0,582783)
variable        y atom y+v_deltaperturb*random(-1.0,1.0,${seed})
variable        y atom y+v_deltaperturb*random(-1.0,1.0,582783)

set             group all z v_z
  72 settings made for z
set             group all y v_y
  72 settings made for y

dump 1 all custom 1 dumpmc.lammpstrj id type xs ys zs  #dump info to trjectory file

run             0
WARNING: No fixes defined, atoms won't move (../verlet.cpp:55)
PPPM initialization ...
WARNING: Using polynomial approximation for long-range coulomb (../kspace.cpp:316)
  G vector (1/distance) = 0.400041
  grid = 8 15 15
  stencil order = 5
  estimated absolute RMS force accuracy = 0.000671313
  estimated relative force accuracy = 4.66201e-05
  using double precision FFTs
  3d grid and FFT values/proc = 8228 1800
Memory usage per processor = 4.7433 Mbytes
Step Temp E_pair E_mol TotEng Press 
<<<<<<< HEAD
       0            0   -1481.4266            0   -1481.4266    672.06402 
=======
       0            0   -1443.5226            0   -1443.5226   -62.243746 
>>>>>>> fdf96370cf386e06c22b3050f8f4a89c2c8ce0fe
Loop time of 2.14577e-06 on 1 procs for 0 steps with 72 atoms

0.0% CPU use with 1 MPI tasks x 1 OpenMP threads

MPI task timing breakdown:
Section |  min time  |  avg time  |  max time  |%varavg| %total
---------------------------------------------------------------
Pair    | 0          | 0          | 0          |   0.0 |  0.00
Kspace  | 0          | 0          | 0          |   0.0 |  0.00
Neigh   | 0          | 0          | 0          |   0.0 |  0.00
Comm    | 0          | 0          | 0          |   0.0 |  0.00
Output  | 0          | 0          | 0          |   0.0 |  0.00
Modify  | 0          | 0          | 0          |   0.0 |  0.00
Other   |            | 2.146e-06  |            |       |100.00

Nlocal:    72 ave 72 max 72 min
Histogram: 1 0 0 0 0 0 0 0 0 0
Nghost:    2403 ave 2403 max 2403 min
Histogram: 1 0 0 0 0 0 0 0 0 0
<<<<<<< HEAD
Neighs:    16560 ave 16560 max 16560 min
Histogram: 1 0 0 0 0 0 0 0 0 0

Total # of neighbors = 16560
Ave neighs/atom = 230
=======
Neighs:    7988 ave 7988 max 7988 min
Histogram: 1 0 0 0 0 0 0 0 0 0

Total # of neighbors = 7988
Ave neighs/atom = 110.944
>>>>>>> fdf96370cf386e06c22b3050f8f4a89c2c8ce0fe
Neighbor list builds = 0
Dangerous builds = 0

variable        estart equal $e
<<<<<<< HEAD
variable        estart equal -1481.42658366852
variable        elast equal $e
variable        elast equal -1481.42658366852
=======
variable        estart equal -1443.5225841969
variable        elast equal $e
variable        elast equal -1443.5225841969
>>>>>>> fdf96370cf386e06c22b3050f8f4a89c2c8ce0fe

#-------------------- loop over Monte Carlo moves ----------------------------

variable        naccept equal 0
variable        increment equal v_naccept+1
variable 	nmoves equal 0.0
variable 	nmincrement equal v_nmoves+1
variable        irandom equal floor(atoms*random(0.0,1.0,${seed})+1)
variable        irandom equal floor(atoms*random(0.0,1.0,582783)+1)
variable        rn equal random(0.0,1.0,${seed})
variable        rn equal random(0.0,1.0,582783)
variable        boltzfactor equal "exp(atoms*(v_elast - v_e) / v_kT)"

variable 	atomid equal v_i%2

variable        znew equal z[v_i]+v_deltamove*random(-1.0,1.0,${seed})
variable        znew equal z[v_i]+v_deltamove*random(-1.0,1.0,582783)
variable        ynew equal y[v_i]+v_deltamove*random(-1.0,1.0,${seed})
variable        ynew equal y[v_i]+v_deltamove*random(-1.0,1.0,582783)
variable        zi equal z[v_i]
variable        yi equal y[v_i]
variable	layeri equal 0
variable 	loweri equal "v_i - 1"
variable 	upperi equal "v_i + 1"

#--------------------- LOOP -----------------------------------
label           loop

variable        i equal ${irandom}
variable        i equal 48

# 0 for even, take away one to get lower layer
# !=0 for odd, add one to get upper layer
if		"${atomid} == 0" then                   "variable layeri equal ${loweri} "                 else                   "variable layeri equal ${upperi} "
variable layeri equal ${loweri} 
variable layeri equal 47 
variable        z0 equal ${zi}
<<<<<<< HEAD
variable        z0 equal 10.53
variable        y0 equal ${yi}
variable        y0 equal 6.318
variable 	zupdate equal ${znew}
variable 	zupdate equal 11.2844156908989
variable 	yupdate equal ${ynew}
variable 	yupdate equal 4.1318256072998

set             atom $i z ${zupdate}
set             atom 48 z ${zupdate}
set             atom 48 z 11.2844156908989
  1 settings made for z
set             atom $i y ${yupdate}
set             atom 48 y ${yupdate}
set             atom 48 y 4.1318256072998
  1 settings made for y
#print " ${zupdate}"
set             atom ${layeri} z ${zupdate}
set             atom 47 z ${zupdate}
set             atom 47 z 11.2844156908989
  1 settings made for z
set             atom ${layeri} y ${yupdate}
set             atom 47 y ${yupdate}
set             atom 47 y 4.1318256072998
=======
variable        z0 equal 10.6378340291977
variable        y0 equal ${yi}
variable        y0 equal 6.13167180347443

set             atom $i z ${znew}
set             atom 48 z ${znew}
set             atom 48 z 10.9396003055573
  1 settings made for z
set             atom $i y ${ynew}
set             atom 48 y ${ynew}
set             atom 48 y 5.25720204639435
  1 settings made for y
set             atom ${layeri} z ${znew}
set             atom 47 z ${znew}
set             atom 47 z 11.6236435937882
  1 settings made for z
set             atom ${layeri} y ${ynew}
set             atom 47 y ${ynew}
set             atom 47 y 4.56969668197632
>>>>>>> fdf96370cf386e06c22b3050f8f4a89c2c8ce0fe
  1 settings made for y
#print " ${zupdate}"

<<<<<<< HEAD
print 	"$i"
48
#print  "v_y[i]"
#print z[i]
print 	"${layeri}"
47

run             1 pre no post no
Step Temp E_pair E_mol TotEng Press 
       0            0   -1481.4266            0   -1481.4266    672.06402 
       1            0    -1306.008            0    -1306.008    427388.04 
Loop time of 0.00492096 on 1 procs for 1 steps with 72 atoms

94.5% CPU use with 1 MPI tasks x 1 OpenMP threads
variable 	nmoves equal ${nmincrement}
variable 	nmoves equal 1
if              "$e <= ${elast}" then                   "variable elast equal $e"                   "variable naccept equal ${increment}"                 elif "${rn} <= ${boltzfactor}"                   "variable elast equal $e"                   "variable naccept equal ${increment}"                 else                   "set atom $i z ${z0}"                   "set atom $i y ${y0}"                   "set atom ${layeri} z ${z0}"                   "set atom ${layeri} y ${y0}"
set atom $i z ${z0}
set atom 48 z ${z0}
set atom 48 z 10.53
  1 settings made for z
set atom $i y ${y0}
set atom 48 y ${y0}
set atom 48 y 6.318
  1 settings made for y
set atom ${layeri} z ${z0}
set atom 47 z ${z0}
set atom 47 z 10.53
  1 settings made for z
set atom ${layeri} y ${y0}
set atom 47 y ${y0}
set atom 47 y 6.318
  1 settings made for y
=======
run             1 pre no post no
Step Temp E_pair E_mol TotEng Press 
       0            0   -1443.5226            0   -1443.5226   -62.243746 
       1            0   -1406.9594            0   -1406.9594    60.476976 
Loop time of 0.040627 on 1 procs for 1 steps with 72 atoms

98.5% CPU use with 1 MPI tasks x 1 OpenMP threads

if              "$e <= ${elast}" then                   "variable elast equal $e"                   "variable naccept equal ${increment}"                 elif "${rn} <= ${boltzfactor}"                   "variable elast equal $e"                   "variable naccept equal ${increment}"                 else                   "set atom $i z ${z0}"                   "set atom $i y ${y0}"                   "set atom ${layeri} z ${z0}"                   "set atom ${layeri} y ${y0}"
set atom $i z ${z0}
set atom 48 z ${z0}
set atom 48 z 10.6378340291977
  1 settings made for z
set atom $i y ${y0}
set atom 48 y ${y0}
set atom 48 y 6.13167180347443
  1 settings made for y
set atom ${layeri} z ${z0}
set atom 47 z ${z0}
set atom 47 z 10.6378340291977
  1 settings made for z
set atom ${layeri} y ${y0}
set atom 47 y ${y0}
set atom 47 y 6.13167180347443
  1 settings made for y
variable 	nmoves equal ${nmincrement}
variable 	nmoves equal 1
>>>>>>> fdf96370cf386e06c22b3050f8f4a89c2c8ce0fe
next            iter
jump            SELF loop

variable        i equal ${irandom}
<<<<<<< HEAD
variable        i equal 12
=======
variable        i equal 33
>>>>>>> fdf96370cf386e06c22b3050f8f4a89c2c8ce0fe

# 0 for even, take away one to get lower layer
# !=0 for odd, add one to get upper layer
if		"${atomid} == 0" then                   "variable layeri equal ${loweri} "                 else                   "variable layeri equal ${upperi} "
<<<<<<< HEAD
variable layeri equal ${loweri} 
variable layeri equal 11 
variable        z0 equal ${zi}
variable        z0 equal 10.53
variable        y0 equal ${yi}
variable        y0 equal 0
variable 	zupdate equal ${znew}
variable 	zupdate equal 12.8726342010498
variable 	yupdate equal ${ynew}
variable 	yupdate equal -0.257987976074219

set             atom $i z ${zupdate}
set             atom 12 z ${zupdate}
set             atom 12 z 12.8726342010498
  1 settings made for z
set             atom $i y ${yupdate}
set             atom 12 y ${yupdate}
set             atom 12 y -0.257987976074219
  1 settings made for y
#print " ${zupdate}"
set             atom ${layeri} z ${zupdate}
set             atom 11 z ${zupdate}
set             atom 11 z 12.8726342010498
  1 settings made for z
set             atom ${layeri} y ${yupdate}
set             atom 11 y ${yupdate}
set             atom 11 y -0.257987976074219
=======
variable layeri equal ${upperi} 
variable layeri equal 34 
variable        z0 equal ${zi}
variable        z0 equal 8.33099121952057
variable        y0 equal ${yi}
variable        y0 equal 4.32470840167999

set             atom $i z ${znew}
set             atom 33 z ${znew}
set             atom 33 z 7.75507159137726
  1 settings made for z
set             atom $i y ${ynew}
set             atom 33 y ${ynew}
set             atom 33 y 4.34975701522827
  1 settings made for y
set             atom ${layeri} z ${znew}
set             atom 34 z ${znew}
set             atom 34 z 8.17741031551361
  1 settings made for z
set             atom ${layeri} y ${ynew}
set             atom 34 y ${ynew}
set             atom 34 y 3.87168604087829
>>>>>>> fdf96370cf386e06c22b3050f8f4a89c2c8ce0fe
  1 settings made for y
#print " ${zupdate}"

<<<<<<< HEAD
print 	"$i"
12
#print  "v_y[i]"
#print z[i]
print 	"${layeri}"
11

run             1 pre no post no
Step Temp E_pair E_mol TotEng Press 
       1            0    -1306.008            0    -1306.008    427388.04 
       2            0    -905.2049            0    -905.2049    553971.87 
Loop time of 0.00580311 on 1 procs for 1 steps with 72 atoms

90.4% CPU use with 1 MPI tasks x 1 OpenMP threads
variable 	nmoves equal ${nmincrement}
variable 	nmoves equal 2
if              "$e <= ${elast}" then                   "variable elast equal $e"                   "variable naccept equal ${increment}"                 elif "${rn} <= ${boltzfactor}"                   "variable elast equal $e"                   "variable naccept equal ${increment}"                 else                   "set atom $i z ${z0}"                   "set atom $i y ${y0}"                   "set atom ${layeri} z ${z0}"                   "set atom ${layeri} y ${y0}"
set atom $i z ${z0}
set atom 12 z ${z0}
set atom 12 z 10.53
  1 settings made for z
set atom $i y ${y0}
set atom 12 y ${y0}
set atom 12 y 0
  1 settings made for y
set atom ${layeri} z ${z0}
set atom 11 z ${z0}
set atom 11 z 10.53
  1 settings made for z
set atom ${layeri} y ${y0}
set atom 11 y ${y0}
set atom 11 y 0
=======
run             1 pre no post no
Step Temp E_pair E_mol TotEng Press 
       1            0   -1406.9594            0   -1406.9594    60.476976 
       2            0   -1433.4456            0   -1433.4456   -21.748575 
Loop time of 0.0402141 on 1 procs for 1 steps with 72 atoms

99.5% CPU use with 1 MPI tasks x 1 OpenMP threads

if              "$e <= ${elast}" then                   "variable elast equal $e"                   "variable naccept equal ${increment}"                 elif "${rn} <= ${boltzfactor}"                   "variable elast equal $e"                   "variable naccept equal ${increment}"                 else                   "set atom $i z ${z0}"                   "set atom $i y ${y0}"                   "set atom ${layeri} z ${z0}"                   "set atom ${layeri} y ${y0}"
set atom $i z ${z0}
set atom 33 z ${z0}
set atom 33 z 8.33099121952057
  1 settings made for z
set atom $i y ${y0}
set atom 33 y ${y0}
set atom 33 y 4.32470840167999
  1 settings made for y
set atom ${layeri} z ${z0}
set atom 34 z ${z0}
set atom 34 z 8.33099121952057
  1 settings made for z
set atom ${layeri} y ${y0}
set atom 34 y ${y0}
set atom 34 y 4.32470840167999
>>>>>>> fdf96370cf386e06c22b3050f8f4a89c2c8ce0fe
  1 settings made for y
variable 	nmoves equal ${nmincrement}
variable 	nmoves equal 2
next            iter
jump            SELF loop

variable        i equal ${irandom}
<<<<<<< HEAD
variable        i equal 37
=======
variable        i equal 13
>>>>>>> fdf96370cf386e06c22b3050f8f4a89c2c8ce0fe

# 0 for even, take away one to get lower layer
# !=0 for odd, add one to get upper layer
if		"${atomid} == 0" then                   "variable layeri equal ${loweri} "                 else                   "variable layeri equal ${upperi} "
variable layeri equal ${upperi} 
<<<<<<< HEAD
variable layeri equal 38 
variable        z0 equal ${zi}
variable        z0 equal 0
variable        y0 equal ${yi}
variable        y0 equal 6.318
variable 	zupdate equal ${znew}
variable 	zupdate equal 1.05584681034088
variable 	yupdate equal ${ynew}
variable 	yupdate equal 5.12282256412506

set             atom $i z ${zupdate}
set             atom 37 z ${zupdate}
set             atom 37 z 1.05584681034088
  1 settings made for z
set             atom $i y ${yupdate}
set             atom 37 y ${yupdate}
set             atom 37 y 5.12282256412506
  1 settings made for y
#print " ${zupdate}"
set             atom ${layeri} z ${zupdate}
set             atom 38 z ${zupdate}
set             atom 38 z 1.05584681034088
  1 settings made for z
set             atom ${layeri} y ${yupdate}
set             atom 38 y ${yupdate}
set             atom 38 y 5.12282256412506
=======
variable layeri equal 14 
variable        z0 equal ${zi}
variable        z0 equal -0.133233547210693
variable        y0 equal ${yi}
variable        y0 equal 2.05542491054535

set             atom $i z ${znew}
set             atom 13 z ${znew}
set             atom 13 z -0.480211138725281
  1 settings made for z
set             atom $i y ${ynew}
set             atom 13 y ${ynew}
set             atom 13 y 1.25223670578003
  1 settings made for y
set             atom ${layeri} z ${znew}
set             atom 14 z ${znew}
set             atom 14 z -1.04281795024872
  1 settings made for z
set             atom ${layeri} y ${ynew}
set             atom 14 y ${ynew}
set             atom 14 y 1.04500518417358
>>>>>>> fdf96370cf386e06c22b3050f8f4a89c2c8ce0fe
  1 settings made for y
#print " ${zupdate}"

<<<<<<< HEAD
print 	"$i"
37
#print  "v_y[i]"
#print z[i]
print 	"${layeri}"
38

run             1 pre no post no
Step Temp E_pair E_mol TotEng Press 
       2            0    -905.2049            0    -905.2049    553971.87 
       3            0   -1435.5442            0   -1435.5442     170455.5 
Loop time of 0.00507998 on 1 procs for 1 steps with 72 atoms

94.4% CPU use with 1 MPI tasks x 1 OpenMP threads
variable 	nmoves equal ${nmincrement}
variable 	nmoves equal 3
if              "$e <= ${elast}" then                   "variable elast equal $e"                   "variable naccept equal ${increment}"                 elif "${rn} <= ${boltzfactor}"                   "variable elast equal $e"                   "variable naccept equal ${increment}"                 else                   "set atom $i z ${z0}"                   "set atom $i y ${y0}"                   "set atom ${layeri} z ${z0}"                   "set atom ${layeri} y ${y0}"
set atom $i z ${z0}
set atom 37 z ${z0}
set atom 37 z 0
  1 settings made for z
set atom $i y ${y0}
set atom 37 y ${y0}
set atom 37 y 6.318
  1 settings made for y
set atom ${layeri} z ${z0}
set atom 38 z ${z0}
set atom 38 z 0
  1 settings made for z
set atom ${layeri} y ${y0}
set atom 38 y ${y0}
set atom 38 y 6.318
  1 settings made for y
=======
run             1 pre no post no
Step Temp E_pair E_mol TotEng Press 
       2            0   -1433.4456            0   -1433.4456   -21.748575 
       3            0   -1430.2386            0   -1430.2386   -10.756685 
Loop time of 0.0396252 on 1 procs for 1 steps with 72 atoms

100.9% CPU use with 1 MPI tasks x 1 OpenMP threads

if              "$e <= ${elast}" then                   "variable elast equal $e"                   "variable naccept equal ${increment}"                 elif "${rn} <= ${boltzfactor}"                   "variable elast equal $e"                   "variable naccept equal ${increment}"                 else                   "set atom $i z ${z0}"                   "set atom $i y ${y0}"                   "set atom ${layeri} z ${z0}"                   "set atom ${layeri} y ${y0}"
set atom $i z ${z0}
set atom 13 z ${z0}
set atom 13 z -0.133233547210693
  1 settings made for z
set atom $i y ${y0}
set atom 13 y ${y0}
set atom 13 y 2.05542491054535
  1 settings made for y
set atom ${layeri} z ${z0}
set atom 14 z ${z0}
set atom 14 z -0.133233547210693
  1 settings made for z
set atom ${layeri} y ${y0}
set atom 14 y ${y0}
set atom 14 y 2.05542491054535
  1 settings made for y
variable 	nmoves equal ${nmincrement}
variable 	nmoves equal 3
>>>>>>> fdf96370cf386e06c22b3050f8f4a89c2c8ce0fe
next            iter
jump            SELF loop

variable        i equal ${irandom}
variable        i equal 13

# 0 for even, take away one to get lower layer
# !=0 for odd, add one to get upper layer
if		"${atomid} == 0" then                   "variable layeri equal ${loweri} "                 else                   "variable layeri equal ${upperi} "
variable layeri equal ${upperi} 
variable layeri equal 14 
variable        z0 equal ${zi}
<<<<<<< HEAD
variable        z0 equal 0
variable        y0 equal ${yi}
variable        y0 equal 2.106
variable 	zupdate equal ${znew}
variable 	zupdate equal -0.867443978786469
variable 	yupdate equal ${ynew}
variable 	yupdate equal 0.0980294880867003

set             atom $i z ${zupdate}
set             atom 13 z ${zupdate}
set             atom 13 z -0.867443978786469
  1 settings made for z
set             atom $i y ${yupdate}
set             atom 13 y ${yupdate}
set             atom 13 y 0.0980294880867003
  1 settings made for y
#print " ${zupdate}"
set             atom ${layeri} z ${zupdate}
set             atom 14 z ${zupdate}
set             atom 14 z -0.867443978786469
  1 settings made for z
set             atom ${layeri} y ${yupdate}
set             atom 14 y ${yupdate}
set             atom 14 y 0.0980294880867003
=======
variable        z0 equal -0.133233547210693
variable        y0 equal ${yi}
variable        y0 equal 2.05542491054535

set             atom $i z ${znew}
set             atom 13 z ${znew}
set             atom 13 z 0.494594216346741
  1 settings made for z
set             atom $i y ${ynew}
set             atom 13 y ${ynew}
set             atom 13 y 2.2102505979538
  1 settings made for y
set             atom ${layeri} z ${znew}
set             atom 14 z ${znew}
set             atom 14 z 1.40673911571503
  1 settings made for z
set             atom ${layeri} y ${ynew}
set             atom 14 y ${ynew}
set             atom 14 y 2.96026263809204
>>>>>>> fdf96370cf386e06c22b3050f8f4a89c2c8ce0fe
  1 settings made for y
#print " ${zupdate}"

<<<<<<< HEAD
print 	"$i"
13
#print  "v_y[i]"
#print z[i]
print 	"${layeri}"
14

run             1 pre no post no
Step Temp E_pair E_mol TotEng Press 
       3            0   -1435.5442            0   -1435.5442     170455.5 
       4            0     -1339.58            0     -1339.58    391128.53 
Loop time of 0.00497794 on 1 procs for 1 steps with 72 atoms

64.8% CPU use with 1 MPI tasks x 1 OpenMP threads
variable 	nmoves equal ${nmincrement}
variable 	nmoves equal 4
if              "$e <= ${elast}" then                   "variable elast equal $e"                   "variable naccept equal ${increment}"                 elif "${rn} <= ${boltzfactor}"                   "variable elast equal $e"                   "variable naccept equal ${increment}"                 else                   "set atom $i z ${z0}"                   "set atom $i y ${y0}"                   "set atom ${layeri} z ${z0}"                   "set atom ${layeri} y ${y0}"
set atom $i z ${z0}
set atom 13 z ${z0}
set atom 13 z 0
  1 settings made for z
set atom $i y ${y0}
set atom 13 y ${y0}
set atom 13 y 2.106
  1 settings made for y
set atom ${layeri} z ${z0}
set atom 14 z ${z0}
set atom 14 z 0
  1 settings made for z
set atom ${layeri} y ${y0}
set atom 14 y ${y0}
set atom 14 y 2.106
  1 settings made for y
=======
run             1 pre no post no
Step Temp E_pair E_mol TotEng Press 
       3            0   -1430.2386            0   -1430.2386   -10.756685 
       4            0   -1398.4788            0   -1398.4788    74.033273 
Loop time of 0.0404 on 1 procs for 1 steps with 72 atoms

99.0% CPU use with 1 MPI tasks x 1 OpenMP threads

if              "$e <= ${elast}" then                   "variable elast equal $e"                   "variable naccept equal ${increment}"                 elif "${rn} <= ${boltzfactor}"                   "variable elast equal $e"                   "variable naccept equal ${increment}"                 else                   "set atom $i z ${z0}"                   "set atom $i y ${y0}"                   "set atom ${layeri} z ${z0}"                   "set atom ${layeri} y ${y0}"
set atom $i z ${z0}
set atom 13 z ${z0}
set atom 13 z -0.133233547210693
  1 settings made for z
set atom $i y ${y0}
set atom 13 y ${y0}
set atom 13 y 2.05542491054535
  1 settings made for y
set atom ${layeri} z ${z0}
set atom 14 z ${z0}
set atom 14 z -0.133233547210693
  1 settings made for z
set atom ${layeri} y ${y0}
set atom 14 y ${y0}
set atom 14 y 2.05542491054535
  1 settings made for y
variable 	nmoves equal ${nmincrement}
variable 	nmoves equal 4
>>>>>>> fdf96370cf386e06c22b3050f8f4a89c2c8ce0fe
next            iter
jump            SELF loop

variable        i equal ${irandom}
<<<<<<< HEAD
variable        i equal 29
=======
variable        i equal 35
>>>>>>> fdf96370cf386e06c22b3050f8f4a89c2c8ce0fe

# 0 for even, take away one to get lower layer
# !=0 for odd, add one to get upper layer
if		"${atomid} == 0" then                   "variable layeri equal ${loweri} "                 else                   "variable layeri equal ${upperi} "
variable layeri equal ${upperi} 
<<<<<<< HEAD
variable layeri equal 30 
variable        z0 equal ${zi}
variable        z0 equal 4.212
variable        y0 equal ${yi}
variable        y0 equal 4.212
variable 	zupdate equal ${znew}
variable 	zupdate equal 3.86070184659958
variable 	yupdate equal ${ynew}
variable 	yupdate equal 2.57478080940247

set             atom $i z ${zupdate}
set             atom 29 z ${zupdate}
set             atom 29 z 3.86070184659958
  1 settings made for z
set             atom $i y ${yupdate}
set             atom 29 y ${yupdate}
set             atom 29 y 2.57478080940247
  1 settings made for y
#print " ${zupdate}"
set             atom ${layeri} z ${zupdate}
set             atom 30 z ${zupdate}
set             atom 30 z 3.86070184659958
  1 settings made for z
set             atom ${layeri} y ${yupdate}
set             atom 30 y ${yupdate}
set             atom 30 y 2.57478080940247
=======
variable layeri equal 36 
variable        z0 equal ${zi}
variable        z0 equal 10.4223955440521
variable        y0 equal ${yi}
variable        y0 equal 4.11496549797058

set             atom $i z ${znew}
set             atom 35 z ${znew}
set             atom 35 z 10.8361342716217
  1 settings made for z
set             atom $i y ${ynew}
set             atom 35 y ${ynew}
set             atom 35 y 4.76000505638123
  1 settings made for y
set             atom ${layeri} z ${znew}
set             atom 36 z ${znew}
set             atom 36 z 10.641669588089
  1 settings made for z
set             atom ${layeri} y ${ynew}
set             atom 36 y ${ynew}
set             atom 36 y 4.15274244499207
>>>>>>> fdf96370cf386e06c22b3050f8f4a89c2c8ce0fe
  1 settings made for y
#print " ${zupdate}"

<<<<<<< HEAD
print 	"$i"
29
#print  "v_y[i]"
#print z[i]
print 	"${layeri}"
30

run             1 pre no post no
Step Temp E_pair E_mol TotEng Press 
       4            0     -1339.58            0     -1339.58    391128.53 
       5            0   -1218.3097            0   -1218.3097    467194.68 
Loop time of 0.00489807 on 1 procs for 1 steps with 72 atoms

118.4% CPU use with 1 MPI tasks x 1 OpenMP threads
variable 	nmoves equal ${nmincrement}
variable 	nmoves equal 5
if              "$e <= ${elast}" then                   "variable elast equal $e"                   "variable naccept equal ${increment}"                 elif "${rn} <= ${boltzfactor}"                   "variable elast equal $e"                   "variable naccept equal ${increment}"                 else                   "set atom $i z ${z0}"                   "set atom $i y ${y0}"                   "set atom ${layeri} z ${z0}"                   "set atom ${layeri} y ${y0}"
set atom $i z ${z0}
set atom 29 z ${z0}
set atom 29 z 4.212
  1 settings made for z
set atom $i y ${y0}
set atom 29 y ${y0}
set atom 29 y 4.212
  1 settings made for y
set atom ${layeri} z ${z0}
set atom 30 z ${z0}
set atom 30 z 4.212
  1 settings made for z
set atom ${layeri} y ${y0}
set atom 30 y ${y0}
set atom 30 y 4.212
=======
run             1 pre no post no
Step Temp E_pair E_mol TotEng Press 
       4            0   -1398.4788            0   -1398.4788    74.033273 
       5            0   -1440.2639            0   -1440.2639   -49.851214 
Loop time of 0.0395701 on 1 procs for 1 steps with 72 atoms

101.1% CPU use with 1 MPI tasks x 1 OpenMP threads

if              "$e <= ${elast}" then                   "variable elast equal $e"                   "variable naccept equal ${increment}"                 elif "${rn} <= ${boltzfactor}"                   "variable elast equal $e"                   "variable naccept equal ${increment}"                 else                   "set atom $i z ${z0}"                   "set atom $i y ${y0}"                   "set atom ${layeri} z ${z0}"                   "set atom ${layeri} y ${y0}"
set atom $i z ${z0}
set atom 35 z ${z0}
set atom 35 z 10.4223955440521
  1 settings made for z
set atom $i y ${y0}
set atom 35 y ${y0}
set atom 35 y 4.11496549797058
  1 settings made for y
set atom ${layeri} z ${z0}
set atom 36 z ${z0}
set atom 36 z 10.4223955440521
  1 settings made for z
set atom ${layeri} y ${y0}
set atom 36 y ${y0}
set atom 36 y 4.11496549797058
>>>>>>> fdf96370cf386e06c22b3050f8f4a89c2c8ce0fe
  1 settings made for y
variable 	nmoves equal ${nmincrement}
variable 	nmoves equal 5
next            iter
jump            SELF loop

variable        i equal ${irandom}
<<<<<<< HEAD
variable        i equal 42
=======
variable        i equal 64
>>>>>>> fdf96370cf386e06c22b3050f8f4a89c2c8ce0fe

# 0 for even, take away one to get lower layer
# !=0 for odd, add one to get upper layer
if		"${atomid} == 0" then                   "variable layeri equal ${loweri} "                 else                   "variable layeri equal ${upperi} "
variable layeri equal ${loweri} 
<<<<<<< HEAD
variable layeri equal 41 
variable        z0 equal ${zi}
variable        z0 equal 4.212
variable        y0 equal ${yi}
variable        y0 equal 6.318
variable 	zupdate equal ${znew}
variable 	zupdate equal 6.49236224842072
variable 	yupdate equal ${ynew}
variable 	yupdate equal 8.19303010034561

set             atom $i z ${zupdate}
set             atom 42 z ${zupdate}
set             atom 42 z 6.49236224842072
  1 settings made for z
set             atom $i y ${yupdate}
set             atom 42 y ${yupdate}
set             atom 42 y 8.19303010034561
  1 settings made for y
#print " ${zupdate}"
set             atom ${layeri} z ${zupdate}
set             atom 41 z ${zupdate}
set             atom 41 z 6.49236224842072
  1 settings made for z
set             atom ${layeri} y ${yupdate}
set             atom 41 y ${yupdate}
set             atom 41 y 8.19303010034561
=======
variable layeri equal 63 
variable        z0 equal ${zi}
variable        z0 equal 2.08824604129791
variable        y0 equal ${yi}
variable        y0 equal 10.3509613800049

set             atom $i z ${znew}
set             atom 64 z ${znew}
set             atom 64 z 2.53839915370941
  1 settings made for z
set             atom $i y ${ynew}
set             atom 64 y ${ynew}
set             atom 64 y 9.88591747760773
  1 settings made for y
set             atom ${layeri} z ${znew}
set             atom 63 z ${znew}
set             atom 63 z 3.05056994533539
  1 settings made for z
set             atom ${layeri} y ${ynew}
set             atom 63 y ${ynew}
set             atom 63 y 9.34789519786835
>>>>>>> fdf96370cf386e06c22b3050f8f4a89c2c8ce0fe
  1 settings made for y
#print " ${zupdate}"

<<<<<<< HEAD
print 	"$i"
42
#print  "v_y[i]"
#print z[i]
print 	"${layeri}"
41

run             1 pre no post no
Step Temp E_pair E_mol TotEng Press 
       5            0   -1218.3097            0   -1218.3097    467194.68 
       6            0   -53073.572            0   -53073.572 -2.5659348e+08 
Loop time of 0.00488186 on 1 procs for 1 steps with 72 atoms

95.7% CPU use with 1 MPI tasks x 1 OpenMP threads
variable 	nmoves equal ${nmincrement}
variable 	nmoves equal 6
if              "$e <= ${elast}" then                   "variable elast equal $e"                   "variable naccept equal ${increment}"                 elif "${rn} <= ${boltzfactor}"                   "variable elast equal $e"                   "variable naccept equal ${increment}"                 else                   "set atom $i z ${z0}"                   "set atom $i y ${y0}"                   "set atom ${layeri} z ${z0}"                   "set atom ${layeri} y ${y0}"
variable elast equal $e
variable elast equal -53073.5720627557
variable naccept equal ${increment}
variable naccept equal 1
=======
run             1 pre no post no
Step Temp E_pair E_mol TotEng Press 
       5            0   -1440.2639            0   -1440.2639   -49.851214 
       6            0   -1416.6247            0   -1416.6247     41.63449 
Loop time of 0.0396781 on 1 procs for 1 steps with 72 atoms

90.7% CPU use with 1 MPI tasks x 1 OpenMP threads

if              "$e <= ${elast}" then                   "variable elast equal $e"                   "variable naccept equal ${increment}"                 elif "${rn} <= ${boltzfactor}"                   "variable elast equal $e"                   "variable naccept equal ${increment}"                 else                   "set atom $i z ${z0}"                   "set atom $i y ${y0}"                   "set atom ${layeri} z ${z0}"                   "set atom ${layeri} y ${y0}"
set atom $i z ${z0}
set atom 64 z ${z0}
set atom 64 z 2.08824604129791
  1 settings made for z
set atom $i y ${y0}
set atom 64 y ${y0}
set atom 64 y 10.3509613800049
  1 settings made for y
set atom ${layeri} z ${z0}
set atom 63 z ${z0}
set atom 63 z 2.08824604129791
  1 settings made for z
set atom ${layeri} y ${y0}
set atom 63 y ${y0}
set atom 63 y 10.3509613800049
  1 settings made for y
variable 	nmoves equal ${nmincrement}
variable 	nmoves equal 6
>>>>>>> fdf96370cf386e06c22b3050f8f4a89c2c8ce0fe
next            iter
jump            SELF loop

variable        i equal ${irandom}
<<<<<<< HEAD
variable        i equal 45
=======
variable        i equal 33
>>>>>>> fdf96370cf386e06c22b3050f8f4a89c2c8ce0fe

# 0 for even, take away one to get lower layer
# !=0 for odd, add one to get upper layer
if		"${atomid} == 0" then                   "variable layeri equal ${loweri} "                 else                   "variable layeri equal ${upperi} "
variable layeri equal ${upperi} 
<<<<<<< HEAD
variable layeri equal 46 
variable        z0 equal ${zi}
variable        z0 equal 8.424
variable        y0 equal ${yi}
variable        y0 equal 6.318
variable 	zupdate equal ${znew}
variable 	zupdate equal 8.32368925714493
variable 	yupdate equal ${ynew}
variable 	yupdate equal 7.35234681892395

set             atom $i z ${zupdate}
set             atom 45 z ${zupdate}
set             atom 45 z 8.32368925714493
  1 settings made for z
set             atom $i y ${yupdate}
set             atom 45 y ${yupdate}
set             atom 45 y 7.35234681892395
  1 settings made for y
#print " ${zupdate}"
set             atom ${layeri} z ${zupdate}
set             atom 46 z ${zupdate}
set             atom 46 z 8.32368925714493
  1 settings made for z
set             atom ${layeri} y ${yupdate}
set             atom 46 y ${yupdate}
set             atom 46 y 7.35234681892395
=======
variable layeri equal 34 
variable        z0 equal ${zi}
variable        z0 equal 8.33099121952057
variable        y0 equal ${yi}
variable        y0 equal 4.32470840167999

set             atom $i z ${znew}
set             atom 33 z ${znew}
set             atom 33 z 9.28318316841126
  1 settings made for z
set             atom $i y ${ynew}
set             atom 33 y ${ynew}
set             atom 33 y 3.38172048282623
  1 settings made for y
set             atom ${layeri} z ${znew}
set             atom 34 z ${znew}
set             atom 34 z 9.1381471862793
  1 settings made for z
set             atom ${layeri} y ${ynew}
set             atom 34 y ${ynew}
set             atom 34 y 3.00123137187957
>>>>>>> fdf96370cf386e06c22b3050f8f4a89c2c8ce0fe
  1 settings made for y
#print " ${zupdate}"

<<<<<<< HEAD
print 	"$i"
45
#print  "v_y[i]"
#print z[i]
print 	"${layeri}"
46

run             1 pre no post no
Step Temp E_pair E_mol TotEng Press 
       6            0   -53073.572            0   -53073.572 -2.5659348e+08 
       7            0   -53025.582            0   -53025.582 -2.5643026e+08 
Loop time of 0.00496793 on 1 procs for 1 steps with 72 atoms

95.4% CPU use with 1 MPI tasks x 1 OpenMP threads
variable 	nmoves equal ${nmincrement}
variable 	nmoves equal 7
if              "$e <= ${elast}" then                   "variable elast equal $e"                   "variable naccept equal ${increment}"                 elif "${rn} <= ${boltzfactor}"                   "variable elast equal $e"                   "variable naccept equal ${increment}"                 else                   "set atom $i z ${z0}"                   "set atom $i y ${y0}"                   "set atom ${layeri} z ${z0}"                   "set atom ${layeri} y ${y0}"
set atom $i z ${z0}
set atom 45 z ${z0}
set atom 45 z 8.424
  1 settings made for z
set atom $i y ${y0}
set atom 45 y ${y0}
set atom 45 y 6.318
  1 settings made for y
set atom ${layeri} z ${z0}
set atom 46 z ${z0}
set atom 46 z 8.424
  1 settings made for z
set atom ${layeri} y ${y0}
set atom 46 y ${y0}
set atom 46 y 6.318
=======
run             1 pre no post no
Step Temp E_pair E_mol TotEng Press 
       6            0   -1416.6247            0   -1416.6247     41.63449 
       7            0    -1391.578            0    -1391.578    122.04468 
Loop time of 0.0401371 on 1 procs for 1 steps with 72 atoms

109.6% CPU use with 1 MPI tasks x 1 OpenMP threads

if              "$e <= ${elast}" then                   "variable elast equal $e"                   "variable naccept equal ${increment}"                 elif "${rn} <= ${boltzfactor}"                   "variable elast equal $e"                   "variable naccept equal ${increment}"                 else                   "set atom $i z ${z0}"                   "set atom $i y ${y0}"                   "set atom ${layeri} z ${z0}"                   "set atom ${layeri} y ${y0}"
set atom $i z ${z0}
set atom 33 z ${z0}
set atom 33 z 8.33099121952057
  1 settings made for z
set atom $i y ${y0}
set atom 33 y ${y0}
set atom 33 y 4.32470840167999
  1 settings made for y
set atom ${layeri} z ${z0}
set atom 34 z ${z0}
set atom 34 z 8.33099121952057
  1 settings made for z
set atom ${layeri} y ${y0}
set atom 34 y ${y0}
set atom 34 y 4.32470840167999
>>>>>>> fdf96370cf386e06c22b3050f8f4a89c2c8ce0fe
  1 settings made for y
variable 	nmoves equal ${nmincrement}
variable 	nmoves equal 7
next            iter
jump            SELF loop

variable        i equal ${irandom}
<<<<<<< HEAD
variable        i equal 29
=======
variable        i equal 43
>>>>>>> fdf96370cf386e06c22b3050f8f4a89c2c8ce0fe

# 0 for even, take away one to get lower layer
# !=0 for odd, add one to get upper layer
if		"${atomid} == 0" then                   "variable layeri equal ${loweri} "                 else                   "variable layeri equal ${upperi} "
variable layeri equal ${upperi} 
<<<<<<< HEAD
variable layeri equal 30 
variable        z0 equal ${zi}
variable        z0 equal 4.212
variable        y0 equal ${yi}
variable        y0 equal 4.212
variable 	zupdate equal ${znew}
variable 	zupdate equal 2.6938434715271
variable 	yupdate equal ${ynew}
variable 	yupdate equal 6.22109614562988

set             atom $i z ${zupdate}
set             atom 29 z ${zupdate}
set             atom 29 z 2.6938434715271
  1 settings made for z
set             atom $i y ${yupdate}
set             atom 29 y ${yupdate}
set             atom 29 y 6.22109614562988
  1 settings made for y
#print " ${zupdate}"
set             atom ${layeri} z ${zupdate}
set             atom 30 z ${zupdate}
set             atom 30 z 2.6938434715271
  1 settings made for z
set             atom ${layeri} y ${yupdate}
set             atom 30 y ${yupdate}
set             atom 30 y 6.22109614562988
=======
variable layeri equal 44 
variable        z0 equal ${zi}
variable        z0 equal 6.35332054424286
variable        y0 equal ${yi}
variable        y0 equal 6.47256147193909

set             atom $i z ${znew}
set             atom 43 z ${znew}
set             atom 43 z 6.82833058166504
  1 settings made for z
set             atom $i y ${ynew}
set             atom 43 y ${ynew}
set             atom 43 y 6.38951861190796
  1 settings made for y
set             atom ${layeri} z ${znew}
set             atom 44 z ${znew}
set             atom 44 z 6.07487696933746
  1 settings made for z
set             atom ${layeri} y ${ynew}
set             atom 44 y ${ynew}
set             atom 44 y 5.96846091079712
>>>>>>> fdf96370cf386e06c22b3050f8f4a89c2c8ce0fe
  1 settings made for y
#print " ${zupdate}"

<<<<<<< HEAD
print 	"$i"
29
#print  "v_y[i]"
#print z[i]
print 	"${layeri}"
30

run             1 pre no post no
Step Temp E_pair E_mol TotEng Press 
       7            0   -53025.582            0   -53025.582 -2.5643026e+08 
       8            0   -53031.696            0   -53031.696 -2.5853464e+08 
Loop time of 0.00570107 on 1 procs for 1 steps with 72 atoms

65.7% CPU use with 1 MPI tasks x 1 OpenMP threads
variable 	nmoves equal ${nmincrement}
variable 	nmoves equal 8
if              "$e <= ${elast}" then                   "variable elast equal $e"                   "variable naccept equal ${increment}"                 elif "${rn} <= ${boltzfactor}"                   "variable elast equal $e"                   "variable naccept equal ${increment}"                 else                   "set atom $i z ${z0}"                   "set atom $i y ${y0}"                   "set atom ${layeri} z ${z0}"                   "set atom ${layeri} y ${y0}"
set atom $i z ${z0}
set atom 29 z ${z0}
set atom 29 z 4.212
  1 settings made for z
set atom $i y ${y0}
set atom 29 y ${y0}
set atom 29 y 4.212
  1 settings made for y
set atom ${layeri} z ${z0}
set atom 30 z ${z0}
set atom 30 z 4.212
  1 settings made for z
set atom ${layeri} y ${y0}
set atom 30 y ${y0}
set atom 30 y 4.212
  1 settings made for y
=======
run             1 pre no post no
Step Temp E_pair E_mol TotEng Press 
       7            0    -1391.578            0    -1391.578    122.04468 
       8            0   -1437.1652            0   -1437.1652   -51.132772 
Loop time of 0.0398662 on 1 procs for 1 steps with 72 atoms

100.3% CPU use with 1 MPI tasks x 1 OpenMP threads

if              "$e <= ${elast}" then                   "variable elast equal $e"                   "variable naccept equal ${increment}"                 elif "${rn} <= ${boltzfactor}"                   "variable elast equal $e"                   "variable naccept equal ${increment}"                 else                   "set atom $i z ${z0}"                   "set atom $i y ${y0}"                   "set atom ${layeri} z ${z0}"                   "set atom ${layeri} y ${y0}"
set atom $i z ${z0}
set atom 43 z ${z0}
set atom 43 z 6.35332054424286
  1 settings made for z
set atom $i y ${y0}
set atom 43 y ${y0}
set atom 43 y 6.47256147193909
  1 settings made for y
set atom ${layeri} z ${z0}
set atom 44 z ${z0}
set atom 44 z 6.35332054424286
  1 settings made for z
set atom ${layeri} y ${y0}
set atom 44 y ${y0}
set atom 44 y 6.47256147193909
  1 settings made for y
variable 	nmoves equal ${nmincrement}
variable 	nmoves equal 8
>>>>>>> fdf96370cf386e06c22b3050f8f4a89c2c8ce0fe
next            iter
jump            SELF loop

variable        i equal ${irandom}
<<<<<<< HEAD
variable        i equal 53
=======
variable        i equal 31
>>>>>>> fdf96370cf386e06c22b3050f8f4a89c2c8ce0fe

# 0 for even, take away one to get lower layer
# !=0 for odd, add one to get upper layer
if		"${atomid} == 0" then                   "variable layeri equal ${loweri} "                 else                   "variable layeri equal ${upperi} "
variable layeri equal ${upperi} 
<<<<<<< HEAD
variable layeri equal 54 
variable        z0 equal ${zi}
variable        z0 equal 4.212
variable        y0 equal ${yi}
variable        y0 equal 8.424
variable 	zupdate equal ${znew}
variable 	zupdate equal 3.04939024400711
variable 	yupdate equal ${ynew}
variable 	yupdate equal 9.70442697906494

set             atom $i z ${zupdate}
set             atom 53 z ${zupdate}
set             atom 53 z 3.04939024400711
  1 settings made for z
set             atom $i y ${yupdate}
set             atom 53 y ${yupdate}
set             atom 53 y 9.70442697906494
  1 settings made for y
#print " ${zupdate}"
set             atom ${layeri} z ${zupdate}
set             atom 54 z ${zupdate}
set             atom 54 z 3.04939024400711
  1 settings made for z
set             atom ${layeri} y ${yupdate}
set             atom 54 y ${yupdate}
set             atom 54 y 9.70442697906494
=======
variable layeri equal 32 
variable        z0 equal ${zi}
variable        z0 equal 6.47222472953796
variable        y0 equal ${yi}
variable        y0 equal 4.27494643878937

set             atom $i z ${znew}
set             atom 31 z ${znew}
set             atom 31 z 7.05787803459167
  1 settings made for z
set             atom $i y ${ynew}
set             atom 31 y ${ynew}
set             atom 31 y 4.92248760414124
  1 settings made for y
set             atom ${layeri} z ${znew}
set             atom 32 z ${znew}
set             atom 32 z 7.93955148983001
  1 settings made for z
set             atom ${layeri} y ${ynew}
set             atom 32 y ${ynew}
set             atom 32 y 4.2501362438202
>>>>>>> fdf96370cf386e06c22b3050f8f4a89c2c8ce0fe
  1 settings made for y
#print " ${zupdate}"

<<<<<<< HEAD
print 	"$i"
53
#print  "v_y[i]"
#print z[i]
print 	"${layeri}"
54

run             1 pre no post no
Step Temp E_pair E_mol TotEng Press 
       8            0   -53031.696            0   -53031.696 -2.5853464e+08 
       9            0   -53011.769            0   -53011.769 -2.5637901e+08 
Loop time of 0.00499201 on 1 procs for 1 steps with 72 atoms

95.0% CPU use with 1 MPI tasks x 1 OpenMP threads
variable 	nmoves equal ${nmincrement}
variable 	nmoves equal 9
if              "$e <= ${elast}" then                   "variable elast equal $e"                   "variable naccept equal ${increment}"                 elif "${rn} <= ${boltzfactor}"                   "variable elast equal $e"                   "variable naccept equal ${increment}"                 else                   "set atom $i z ${z0}"                   "set atom $i y ${y0}"                   "set atom ${layeri} z ${z0}"                   "set atom ${layeri} y ${y0}"
set atom $i z ${z0}
set atom 53 z ${z0}
set atom 53 z 4.212
  1 settings made for z
set atom $i y ${y0}
set atom 53 y ${y0}
set atom 53 y 8.424
  1 settings made for y
set atom ${layeri} z ${z0}
set atom 54 z ${z0}
set atom 54 z 4.212
  1 settings made for z
set atom ${layeri} y ${y0}
set atom 54 y ${y0}
set atom 54 y 8.424
  1 settings made for y
=======
run             1 pre no post no
Step Temp E_pair E_mol TotEng Press 
       8            0   -1437.1652            0   -1437.1652   -51.132772 
       9            0   -1189.8329            0   -1189.8329    246.05664 
Loop time of 0.0395288 on 1 procs for 1 steps with 72 atoms

101.2% CPU use with 1 MPI tasks x 1 OpenMP threads

if              "$e <= ${elast}" then                   "variable elast equal $e"                   "variable naccept equal ${increment}"                 elif "${rn} <= ${boltzfactor}"                   "variable elast equal $e"                   "variable naccept equal ${increment}"                 else                   "set atom $i z ${z0}"                   "set atom $i y ${y0}"                   "set atom ${layeri} z ${z0}"                   "set atom ${layeri} y ${y0}"
set atom $i z ${z0}
set atom 31 z ${z0}
set atom 31 z 6.47222472953796
  1 settings made for z
set atom $i y ${y0}
set atom 31 y ${y0}
set atom 31 y 4.27494643878937
  1 settings made for y
set atom ${layeri} z ${z0}
set atom 32 z ${z0}
set atom 32 z 6.47222472953796
  1 settings made for z
set atom ${layeri} y ${y0}
set atom 32 y ${y0}
set atom 32 y 4.27494643878937
  1 settings made for y
variable 	nmoves equal ${nmincrement}
variable 	nmoves equal 9
>>>>>>> fdf96370cf386e06c22b3050f8f4a89c2c8ce0fe
next            iter
jump            SELF loop

variable        i equal ${irandom}
variable        i equal 16

# 0 for even, take away one to get lower layer
# !=0 for odd, add one to get upper layer
if		"${atomid} == 0" then                   "variable layeri equal ${loweri} "                 else                   "variable layeri equal ${upperi} "
variable layeri equal ${loweri} 
variable layeri equal 15 
variable        z0 equal ${zi}
<<<<<<< HEAD
variable        z0 equal 2.106
variable        y0 equal ${yi}
variable        y0 equal 2.106
variable 	zupdate equal ${znew}
variable 	zupdate equal 1.87491338825226
variable 	yupdate equal ${ynew}
variable 	yupdate equal 4.48647987222671

set             atom $i z ${zupdate}
set             atom 16 z ${zupdate}
set             atom 16 z 1.87491338825226
  1 settings made for z
set             atom $i y ${yupdate}
set             atom 16 y ${yupdate}
set             atom 16 y 4.48647987222671
  1 settings made for y
#print " ${zupdate}"
set             atom ${layeri} z ${zupdate}
set             atom 15 z ${zupdate}
set             atom 15 z 1.87491338825226
  1 settings made for z
set             atom ${layeri} y ${yupdate}
set             atom 15 y ${yupdate}
set             atom 15 y 4.48647987222671
=======
variable        z0 equal 1.99347863769531
variable        y0 equal ${yi}
variable        y0 equal 2.18772826766968

set             atom $i z ${znew}
set             atom 16 z ${znew}
set             atom 16 z 2.45848332023621
  1 settings made for z
set             atom $i y ${ynew}
set             atom 16 y ${ynew}
set             atom 16 y 1.30217848396301
  1 settings made for y
set             atom ${layeri} z ${znew}
set             atom 15 z ${znew}
set             atom 15 z 2.03552816486359
  1 settings made for z
set             atom ${layeri} y ${ynew}
set             atom 15 y ${ynew}
set             atom 15 y 1.32635865783691
>>>>>>> fdf96370cf386e06c22b3050f8f4a89c2c8ce0fe
  1 settings made for y
#print " ${zupdate}"

<<<<<<< HEAD
print 	"$i"
16
#print  "v_y[i]"
#print z[i]
print 	"${layeri}"
15

run             1 pre no post no
Step Temp E_pair E_mol TotEng Press 
       9            0   -53011.769            0   -53011.769 -2.5637901e+08 
      10            0   -52510.621            0   -52510.621 -2.5603606e+08 
Loop time of 0.00499916 on 1 procs for 1 steps with 72 atoms

113.3% CPU use with 1 MPI tasks x 1 OpenMP threads
variable 	nmoves equal ${nmincrement}
variable 	nmoves equal 10
if              "$e <= ${elast}" then                   "variable elast equal $e"                   "variable naccept equal ${increment}"                 elif "${rn} <= ${boltzfactor}"                   "variable elast equal $e"                   "variable naccept equal ${increment}"                 else                   "set atom $i z ${z0}"                   "set atom $i y ${y0}"                   "set atom ${layeri} z ${z0}"                   "set atom ${layeri} y ${y0}"
set atom $i z ${z0}
set atom 16 z ${z0}
set atom 16 z 2.106
  1 settings made for z
set atom $i y ${y0}
set atom 16 y ${y0}
set atom 16 y 2.106
  1 settings made for y
set atom ${layeri} z ${z0}
set atom 15 z ${z0}
set atom 15 z 2.106
  1 settings made for z
set atom ${layeri} y ${y0}
set atom 15 y ${y0}
set atom 15 y 2.106
  1 settings made for y
=======
run             1 pre no post no
Step Temp E_pair E_mol TotEng Press 
       9            0   -1189.8329            0   -1189.8329    246.05664 
      10            0   -1435.5781            0   -1435.5781  -0.54769556 
Loop time of 0.039829 on 1 procs for 1 steps with 72 atoms

110.5% CPU use with 1 MPI tasks x 1 OpenMP threads

if              "$e <= ${elast}" then                   "variable elast equal $e"                   "variable naccept equal ${increment}"                 elif "${rn} <= ${boltzfactor}"                   "variable elast equal $e"                   "variable naccept equal ${increment}"                 else                   "set atom $i z ${z0}"                   "set atom $i y ${y0}"                   "set atom ${layeri} z ${z0}"                   "set atom ${layeri} y ${y0}"
set atom $i z ${z0}
set atom 16 z ${z0}
set atom 16 z 1.99347863769531
  1 settings made for z
set atom $i y ${y0}
set atom 16 y ${y0}
set atom 16 y 2.18772826766968
  1 settings made for y
set atom ${layeri} z ${z0}
set atom 15 z ${z0}
set atom 15 z 1.99347863769531
  1 settings made for z
set atom ${layeri} y ${y0}
set atom 15 y ${y0}
set atom 15 y 2.18772826766968
  1 settings made for y
variable 	nmoves equal ${nmincrement}
variable 	nmoves equal 10
>>>>>>> fdf96370cf386e06c22b3050f8f4a89c2c8ce0fe
next            iter
jump            SELF loop

variable        i equal ${irandom}
<<<<<<< HEAD
variable        i equal 31
=======
variable        i equal 5
>>>>>>> fdf96370cf386e06c22b3050f8f4a89c2c8ce0fe

# 0 for even, take away one to get lower layer
# !=0 for odd, add one to get upper layer
if		"${atomid} == 0" then                   "variable layeri equal ${loweri} "                 else                   "variable layeri equal ${upperi} "
variable layeri equal ${upperi} 
<<<<<<< HEAD
variable layeri equal 32 
variable        z0 equal ${zi}
variable        z0 equal 6.318
variable        y0 equal ${yi}
variable        y0 equal 4.212
variable 	zupdate equal ${znew}
variable 	zupdate equal 5.36677722263336
variable 	yupdate equal ${ynew}
variable 	yupdate equal 2.37005107355118

set             atom $i z ${zupdate}
set             atom 31 z ${zupdate}
set             atom 31 z 5.36677722263336
  1 settings made for z
set             atom $i y ${yupdate}
set             atom 31 y ${yupdate}
set             atom 31 y 2.37005107355118
  1 settings made for y
#print " ${zupdate}"
set             atom ${layeri} z ${zupdate}
set             atom 32 z ${zupdate}
set             atom 32 z 5.36677722263336
  1 settings made for z
set             atom ${layeri} y ${yupdate}
set             atom 32 y ${yupdate}
set             atom 32 y 2.37005107355118
=======
variable layeri equal 6 
variable        z0 equal ${zi}
variable        z0 equal 4.07449892711639
variable        y0 equal ${yi}
variable        y0 equal -0.0747952461242676

set             atom $i z ${znew}
set             atom 5 z ${znew}
set             atom 5 z 4.84416691017151
  1 settings made for z
set             atom $i y ${ynew}
set             atom 5 y ${ynew}
set             atom 5 y -0.305652856826782
  1 settings made for y
set             atom ${layeri} z ${znew}
set             atom 6 z ${znew}
set             atom 6 z 4.75539711666107
  1 settings made for z
set             atom ${layeri} y ${ynew}
set             atom 6 y ${ynew}
set             atom 6 y 0.0492150783538821
>>>>>>> fdf96370cf386e06c22b3050f8f4a89c2c8ce0fe
  1 settings made for y
#print " ${zupdate}"

<<<<<<< HEAD
print 	"$i"
31
#print  "v_y[i]"
#print z[i]
print 	"${layeri}"
32

run             1 pre no post no
Step Temp E_pair E_mol TotEng Press 
      10            0   -52510.621            0   -52510.621 -2.5603606e+08 
      11            0   -52952.414            0   -52952.414 -2.5623892e+08 
Loop time of 0.00499892 on 1 procs for 1 steps with 72 atoms

32.4% CPU use with 1 MPI tasks x 1 OpenMP threads
variable 	nmoves equal ${nmincrement}
variable 	nmoves equal 11
if              "$e <= ${elast}" then                   "variable elast equal $e"                   "variable naccept equal ${increment}"                 elif "${rn} <= ${boltzfactor}"                   "variable elast equal $e"                   "variable naccept equal ${increment}"                 else                   "set atom $i z ${z0}"                   "set atom $i y ${y0}"                   "set atom ${layeri} z ${z0}"                   "set atom ${layeri} y ${y0}"
set atom $i z ${z0}
set atom 31 z ${z0}
set atom 31 z 6.318
  1 settings made for z
set atom $i y ${y0}
set atom 31 y ${y0}
set atom 31 y 4.212
  1 settings made for y
set atom ${layeri} z ${z0}
set atom 32 z ${z0}
set atom 32 z 6.318
  1 settings made for z
set atom ${layeri} y ${y0}
set atom 32 y ${y0}
set atom 32 y 4.212
  1 settings made for y
=======
run             1 pre no post no
Step Temp E_pair E_mol TotEng Press 
      10            0   -1435.5781            0   -1435.5781  -0.54769556 
      11            0   -1440.4686            0   -1440.4686       -23.12 
Loop time of 0.039736 on 1 procs for 1 steps with 72 atoms

100.7% CPU use with 1 MPI tasks x 1 OpenMP threads

if              "$e <= ${elast}" then                   "variable elast equal $e"                   "variable naccept equal ${increment}"                 elif "${rn} <= ${boltzfactor}"                   "variable elast equal $e"                   "variable naccept equal ${increment}"                 else                   "set atom $i z ${z0}"                   "set atom $i y ${y0}"                   "set atom ${layeri} z ${z0}"                   "set atom ${layeri} y ${y0}"
set atom $i z ${z0}
set atom 5 z ${z0}
set atom 5 z 4.07449892711639
  1 settings made for z
set atom $i y ${y0}
set atom 5 y ${y0}
set atom 5 y -0.0747952461242676
  1 settings made for y
set atom ${layeri} z ${z0}
set atom 6 z ${z0}
set atom 6 z 4.07449892711639
  1 settings made for z
set atom ${layeri} y ${y0}
set atom 6 y ${y0}
set atom 6 y -0.0747952461242676
  1 settings made for y
variable 	nmoves equal ${nmincrement}
variable 	nmoves equal 11
>>>>>>> fdf96370cf386e06c22b3050f8f4a89c2c8ce0fe
next            iter
jump            SELF loop

variable        i equal ${irandom}
variable        i equal 54

# 0 for even, take away one to get lower layer
# !=0 for odd, add one to get upper layer
if		"${atomid} == 0" then                   "variable layeri equal ${loweri} "                 else                   "variable layeri equal ${upperi} "
variable layeri equal ${loweri} 
variable layeri equal 53 
variable        z0 equal ${zi}
<<<<<<< HEAD
variable        z0 equal 4.212
variable        y0 equal ${yi}
variable        y0 equal 8.424
variable 	zupdate equal ${znew}
variable 	zupdate equal 4.00439284992218
variable 	yupdate equal ${ynew}
variable 	yupdate equal 6.54036596918106

set             atom $i z ${zupdate}
set             atom 54 z ${zupdate}
set             atom 54 z 4.00439284992218
  1 settings made for z
set             atom $i y ${yupdate}
set             atom 54 y ${yupdate}
set             atom 54 y 6.54036596918106
  1 settings made for y
#print " ${zupdate}"
set             atom ${layeri} z ${zupdate}
set             atom 53 z ${zupdate}
set             atom 53 z 4.00439284992218
  1 settings made for z
set             atom ${layeri} y ${yupdate}
set             atom 53 y ${yupdate}
set             atom 53 y 6.54036596918106
=======
variable        z0 equal 4.28256701183319
variable        y0 equal ${yi}
variable        y0 equal 8.62122669124603

set             atom $i z ${znew}
set             atom 54 z ${znew}
set             atom 54 z 4.69431649398804
  1 settings made for z
set             atom $i y ${ynew}
set             atom 54 y ${ynew}
set             atom 54 y 9.46640183830261
  1 settings made for y
set             atom ${layeri} z ${znew}
set             atom 53 z ${znew}
set             atom 53 z 5.56777607154847
  1 settings made for z
set             atom ${layeri} y ${ynew}
set             atom 53 y ${ynew}
set             atom 53 y 9.13519337081909
  1 settings made for y

run             1 pre no post no
Step Temp E_pair E_mol TotEng Press 
      11            0   -1440.4686            0   -1440.4686       -23.12 
      12            0   -1370.3757            0   -1370.3757    146.25105 
Loop time of 0.039777 on 1 procs for 1 steps with 72 atoms

100.6% CPU use with 1 MPI tasks x 1 OpenMP threads

if              "$e <= ${elast}" then                   "variable elast equal $e"                   "variable naccept equal ${increment}"                 elif "${rn} <= ${boltzfactor}"                   "variable elast equal $e"                   "variable naccept equal ${increment}"                 else                   "set atom $i z ${z0}"                   "set atom $i y ${y0}"                   "set atom ${layeri} z ${z0}"                   "set atom ${layeri} y ${y0}"
set atom $i z ${z0}
set atom 54 z ${z0}
set atom 54 z 4.28256701183319
  1 settings made for z
set atom $i y ${y0}
set atom 54 y ${y0}
set atom 54 y 8.62122669124603
  1 settings made for y
set atom ${layeri} z ${z0}
set atom 53 z ${z0}
set atom 53 z 4.28256701183319
  1 settings made for z
set atom ${layeri} y ${y0}
set atom 53 y ${y0}
set atom 53 y 8.62122669124603
  1 settings made for y
variable 	nmoves equal ${nmincrement}
variable 	nmoves equal 12
next            iter
jump            SELF loop

variable        i equal ${irandom}
variable        i equal 54

# 0 for even, take away one to get lower layer
# !=0 for odd, add one to get upper layer
if		"${atomid} == 0" then                   "variable layeri equal ${loweri} "                 else                   "variable layeri equal ${upperi} "
variable layeri equal ${loweri} 
variable layeri equal 53 
variable        z0 equal ${zi}
variable        z0 equal 4.28256701183319
variable        y0 equal ${yi}
variable        y0 equal 8.62122669124603

set             atom $i z ${znew}
set             atom 54 z ${znew}
set             atom 54 z 5.09108208370209
  1 settings made for z
set             atom $i y ${ynew}
set             atom 54 y ${ynew}
set             atom 54 y 7.96248021030426
  1 settings made for y
set             atom ${layeri} z ${znew}
set             atom 53 z ${znew}
set             atom 53 z 4.85890160751343
  1 settings made for z
set             atom ${layeri} y ${ynew}
set             atom 53 y ${ynew}
set             atom 53 y 7.58850397968292
  1 settings made for y

run             1 pre no post no
Step Temp E_pair E_mol TotEng Press 
      12            0   -1370.3757            0   -1370.3757    146.25105 
      13            0   -1429.7514            0   -1429.7514    4.0598603 
Loop time of 0.040108 on 1 procs for 1 steps with 72 atoms

99.7% CPU use with 1 MPI tasks x 1 OpenMP threads

if              "$e <= ${elast}" then                   "variable elast equal $e"                   "variable naccept equal ${increment}"                 elif "${rn} <= ${boltzfactor}"                   "variable elast equal $e"                   "variable naccept equal ${increment}"                 else                   "set atom $i z ${z0}"                   "set atom $i y ${y0}"                   "set atom ${layeri} z ${z0}"                   "set atom ${layeri} y ${y0}"
set atom $i z ${z0}
set atom 54 z ${z0}
set atom 54 z 4.28256701183319
  1 settings made for z
set atom $i y ${y0}
set atom 54 y ${y0}
set atom 54 y 8.62122669124603
  1 settings made for y
set atom ${layeri} z ${z0}
set atom 53 z ${z0}
set atom 53 z 4.28256701183319
  1 settings made for z
set atom ${layeri} y ${y0}
set atom 53 y ${y0}
set atom 53 y 8.62122669124603
  1 settings made for y
variable 	nmoves equal ${nmincrement}
variable 	nmoves equal 13
next            iter
jump            SELF loop

variable        i equal ${irandom}
variable        i equal 44

# 0 for even, take away one to get lower layer
# !=0 for odd, add one to get upper layer
if		"${atomid} == 0" then                   "variable layeri equal ${loweri} "                 else                   "variable layeri equal ${upperi} "
variable layeri equal ${loweri} 
variable layeri equal 43 
variable        z0 equal ${zi}
variable        z0 equal 6.35332054424286
variable        y0 equal ${yi}
variable        y0 equal 6.47256147193909

set             atom $i z ${znew}
set             atom 44 z ${znew}
set             atom 44 z 7.07167369651795
  1 settings made for z
set             atom $i y ${ynew}
set             atom 44 y ${ynew}
set             atom 44 y 5.6095846824646
  1 settings made for y
set             atom ${layeri} z ${znew}
set             atom 43 z ${znew}
set             atom 43 z 7.35908097553254
  1 settings made for z
set             atom ${layeri} y ${ynew}
set             atom 43 y ${ynew}
set             atom 43 y 4.84449981975555
  1 settings made for y

run             1 pre no post no
Step Temp E_pair E_mol TotEng Press 
      13            0   -1429.7514            0   -1429.7514    4.0598603 
      14            0   -1395.2972            0   -1395.2972     105.3927 
Loop time of 0.040216 on 1 procs for 1 steps with 72 atoms

99.5% CPU use with 1 MPI tasks x 1 OpenMP threads

if              "$e <= ${elast}" then                   "variable elast equal $e"                   "variable naccept equal ${increment}"                 elif "${rn} <= ${boltzfactor}"                   "variable elast equal $e"                   "variable naccept equal ${increment}"                 else                   "set atom $i z ${z0}"                   "set atom $i y ${y0}"                   "set atom ${layeri} z ${z0}"                   "set atom ${layeri} y ${y0}"
set atom $i z ${z0}
set atom 44 z ${z0}
set atom 44 z 6.35332054424286
  1 settings made for z
set atom $i y ${y0}
set atom 44 y ${y0}
set atom 44 y 6.47256147193909
  1 settings made for y
set atom ${layeri} z ${z0}
set atom 43 z ${z0}
set atom 43 z 6.35332054424286
  1 settings made for z
set atom ${layeri} y ${y0}
set atom 43 y ${y0}
set atom 43 y 6.47256147193909
  1 settings made for y
variable 	nmoves equal ${nmincrement}
variable 	nmoves equal 14
next            iter
jump            SELF loop

variable        i equal ${irandom}
variable        i equal 27

# 0 for even, take away one to get lower layer
# !=0 for odd, add one to get upper layer
if		"${atomid} == 0" then                   "variable layeri equal ${loweri} "                 else                   "variable layeri equal ${upperi} "
variable layeri equal ${upperi} 
variable layeri equal 28 
variable        z0 equal ${zi}
variable        z0 equal 2.23500791168213
variable        y0 equal ${yi}
variable        y0 equal 4.3609364862442

set             atom $i z ${znew}
set             atom 27 z ${znew}
set             atom 27 z 3.15466597652435
  1 settings made for z
set             atom $i y ${ynew}
set             atom 27 y ${ynew}
set             atom 27 y 3.80565568161011
  1 settings made for y
set             atom ${layeri} z ${znew}
set             atom 28 z ${znew}
set             atom 28 z 3.56330731487274
  1 settings made for z
set             atom ${layeri} y ${ynew}
set             atom 28 y ${ynew}
set             atom 28 y 3.71698971939087
  1 settings made for y

run             1 pre no post no
Step Temp E_pair E_mol TotEng Press 
      14            0   -1395.2972            0   -1395.2972     105.3927 
      15            0   -1387.3014            0   -1387.3014    121.59111 
Loop time of 0.0401189 on 1 procs for 1 steps with 72 atoms

99.7% CPU use with 1 MPI tasks x 1 OpenMP threads

if              "$e <= ${elast}" then                   "variable elast equal $e"                   "variable naccept equal ${increment}"                 elif "${rn} <= ${boltzfactor}"                   "variable elast equal $e"                   "variable naccept equal ${increment}"                 else                   "set atom $i z ${z0}"                   "set atom $i y ${y0}"                   "set atom ${layeri} z ${z0}"                   "set atom ${layeri} y ${y0}"
set atom $i z ${z0}
set atom 27 z ${z0}
set atom 27 z 2.23500791168213
  1 settings made for z
set atom $i y ${y0}
set atom 27 y ${y0}
set atom 27 y 4.3609364862442
  1 settings made for y
set atom ${layeri} z ${z0}
set atom 28 z ${z0}
set atom 28 z 2.23500791168213
  1 settings made for z
set atom ${layeri} y ${y0}
set atom 28 y ${y0}
set atom 28 y 4.3609364862442
  1 settings made for y
variable 	nmoves equal ${nmincrement}
variable 	nmoves equal 15
next            iter
jump            SELF loop

variable        i equal ${irandom}
variable        i equal 24

# 0 for even, take away one to get lower layer
# !=0 for odd, add one to get upper layer
if		"${atomid} == 0" then                   "variable layeri equal ${loweri} "                 else                   "variable layeri equal ${upperi} "
variable layeri equal ${loweri} 
variable layeri equal 23 
variable        z0 equal ${zi}
variable        z0 equal 10.5768063831329
variable        y0 equal ${yi}
variable        y0 equal 2.26690762615204

set             atom $i z ${znew}
set             atom 24 z ${znew}
set             atom 24 z 10.0638718175888
  1 settings made for z
set             atom $i y ${ynew}
set             atom 24 y ${ynew}
set             atom 24 y 1.91137509918213
  1 settings made for y
set             atom ${layeri} z ${znew}
set             atom 23 z ${znew}
set             atom 23 z 10.5818881559372
  1 settings made for z
set             atom ${layeri} y ${ynew}
set             atom 23 y ${ynew}
set             atom 23 y 1.988195353508
  1 settings made for y

run             1 pre no post no
Step Temp E_pair E_mol TotEng Press 
      15            0   -1387.3014            0   -1387.3014    121.59111 
      16            0     -1442.41            0     -1442.41       -37.99 
Loop time of 0.039603 on 1 procs for 1 steps with 72 atoms

111.1% CPU use with 1 MPI tasks x 1 OpenMP threads

if              "$e <= ${elast}" then                   "variable elast equal $e"                   "variable naccept equal ${increment}"                 elif "${rn} <= ${boltzfactor}"                   "variable elast equal $e"                   "variable naccept equal ${increment}"                 else                   "set atom $i z ${z0}"                   "set atom $i y ${y0}"                   "set atom ${layeri} z ${z0}"                   "set atom ${layeri} y ${y0}"
set atom $i z ${z0}
set atom 24 z ${z0}
set atom 24 z 10.5768063831329
  1 settings made for z
set atom $i y ${y0}
set atom 24 y ${y0}
set atom 24 y 2.26690762615204
  1 settings made for y
set atom ${layeri} z ${z0}
set atom 23 z ${z0}
set atom 23 z 10.5768063831329
  1 settings made for z
set atom ${layeri} y ${y0}
set atom 23 y ${y0}
set atom 23 y 2.26690762615204
  1 settings made for y
variable 	nmoves equal ${nmincrement}
variable 	nmoves equal 16
next            iter
jump            SELF loop

variable        i equal ${irandom}
variable        i equal 33

# 0 for even, take away one to get lower layer
# !=0 for odd, add one to get upper layer
if		"${atomid} == 0" then                   "variable layeri equal ${loweri} "                 else                   "variable layeri equal ${upperi} "
variable layeri equal ${upperi} 
variable layeri equal 34 
variable        z0 equal ${zi}
variable        z0 equal 8.33099121952057
variable        y0 equal ${yi}
variable        y0 equal 4.32470840167999

set             atom $i z ${znew}
set             atom 33 z ${znew}
set             atom 33 z 7.9956067314148
  1 settings made for z
set             atom $i y ${ynew}
set             atom 33 y ${ynew}
set             atom 33 y 5.069390832901
  1 settings made for y
set             atom ${layeri} z ${znew}
set             atom 34 z ${znew}
set             atom 34 z 8.15423257255555
  1 settings made for z
set             atom ${layeri} y ${ynew}
set             atom 34 y ${ynew}
set             atom 34 y 5.76789003562927
  1 settings made for y

run             1 pre no post no
Step Temp E_pair E_mol TotEng Press 
      16            0     -1442.41            0     -1442.41       -37.99 
      17            0   -1320.5882            0   -1320.5882    214.23321 
Loop time of 0.0398929 on 1 procs for 1 steps with 72 atoms

100.3% CPU use with 1 MPI tasks x 1 OpenMP threads

if              "$e <= ${elast}" then                   "variable elast equal $e"                   "variable naccept equal ${increment}"                 elif "${rn} <= ${boltzfactor}"                   "variable elast equal $e"                   "variable naccept equal ${increment}"                 else                   "set atom $i z ${z0}"                   "set atom $i y ${y0}"                   "set atom ${layeri} z ${z0}"                   "set atom ${layeri} y ${y0}"
set atom $i z ${z0}
set atom 33 z ${z0}
set atom 33 z 8.33099121952057
  1 settings made for z
set atom $i y ${y0}
set atom 33 y ${y0}
set atom 33 y 4.32470840167999
  1 settings made for y
set atom ${layeri} z ${z0}
set atom 34 z ${z0}
set atom 34 z 8.33099121952057
  1 settings made for z
set atom ${layeri} y ${y0}
set atom 34 y ${y0}
set atom 34 y 4.32470840167999
  1 settings made for y
variable 	nmoves equal ${nmincrement}
variable 	nmoves equal 17
next            iter
jump            SELF loop

variable        i equal ${irandom}
variable        i equal 48

# 0 for even, take away one to get lower layer
# !=0 for odd, add one to get upper layer
if		"${atomid} == 0" then                   "variable layeri equal ${loweri} "                 else                   "variable layeri equal ${upperi} "
variable layeri equal ${loweri} 
variable layeri equal 47 
variable        z0 equal ${zi}
variable        z0 equal 10.6378340291977
variable        y0 equal ${yi}
variable        y0 equal 6.13167180347443

set             atom $i z ${znew}
set             atom 48 z ${znew}
set             atom 48 z 10.0294515657425
  1 settings made for z
set             atom $i y ${ynew}
set             atom 48 y ${ynew}
set             atom 48 y 6.69521381187439
  1 settings made for y
set             atom ${layeri} z ${znew}
set             atom 47 z ${znew}
set             atom 47 z 10.545561747551
  1 settings made for z
set             atom ${layeri} y ${ynew}
set             atom 47 y ${ynew}
set             atom 47 y 6.2100413017273
  1 settings made for y

run             1 pre no post no
Step Temp E_pair E_mol TotEng Press 
      17            0   -1320.5882            0   -1320.5882    214.23321 
      18            0    -1444.913            0    -1444.913   -40.126103 
Loop time of 0.0400701 on 1 procs for 1 steps with 72 atoms

99.8% CPU use with 1 MPI tasks x 1 OpenMP threads

if              "$e <= ${elast}" then                   "variable elast equal $e"                   "variable naccept equal ${increment}"                 elif "${rn} <= ${boltzfactor}"                   "variable elast equal $e"                   "variable naccept equal ${increment}"                 else                   "set atom $i z ${z0}"                   "set atom $i y ${y0}"                   "set atom ${layeri} z ${z0}"                   "set atom ${layeri} y ${y0}"
variable elast equal $e
variable elast equal -1444.91299899675
variable naccept equal ${increment}
variable naccept equal 1
variable 	nmoves equal ${nmincrement}
variable 	nmoves equal 18
next            iter
jump            SELF loop

variable        i equal ${irandom}
variable        i equal 72

# 0 for even, take away one to get lower layer
# !=0 for odd, add one to get upper layer
if		"${atomid} == 0" then                   "variable layeri equal ${loweri} "                 else                   "variable layeri equal ${upperi} "
variable layeri equal ${loweri} 
variable layeri equal 71 
variable        z0 equal ${zi}
variable        z0 equal 10.7173218297958
variable        y0 equal ${yi}
variable        y0 equal 10.456537322998

set             atom $i z ${znew}
set             atom 72 z ${znew}
set             atom 72 z 10.4106897878647
  1 settings made for z
set             atom $i y ${ynew}
set             atom 72 y ${ynew}
set             atom 72 y 10.8027481603622
  1 settings made for y
set             atom ${layeri} z ${znew}
set             atom 71 z ${znew}
set             atom 71 z 10.019203619957
  1 settings made for z
set             atom ${layeri} y ${ynew}
set             atom 71 y ${ynew}
set             atom 71 y 10.2597875165939
  1 settings made for y

run             1 pre no post no
Step Temp E_pair E_mol TotEng Press 
      18            0    -1444.913            0    -1444.913   -40.126103 
      19            0   -1440.0987            0   -1440.0987   -11.717157 
Loop time of 0.0400369 on 1 procs for 1 steps with 72 atoms

99.9% CPU use with 1 MPI tasks x 1 OpenMP threads

if              "$e <= ${elast}" then                   "variable elast equal $e"                   "variable naccept equal ${increment}"                 elif "${rn} <= ${boltzfactor}"                   "variable elast equal $e"                   "variable naccept equal ${increment}"                 else                   "set atom $i z ${z0}"                   "set atom $i y ${y0}"                   "set atom ${layeri} z ${z0}"                   "set atom ${layeri} y ${y0}"
set atom $i z ${z0}
set atom 72 z ${z0}
set atom 72 z 10.7173218297958
[...]

96.5% CPU use with 1 MPI tasks x 1 OpenMP threads
variable 	nmoves equal ${nmincrement}
variable 	nmoves equal 45
if              "$e <= ${elast}" then                   "variable elast equal $e"                   "variable naccept equal ${increment}"                 elif "${rn} <= ${boltzfactor}"                   "variable elast equal $e"                   "variable naccept equal ${increment}"                 else                   "set atom $i z ${z0}"                   "set atom $i y ${y0}"                   "set atom ${layeri} z ${z0}"                   "set atom ${layeri} y ${y0}"
set atom $i z ${z0}
set atom 32 z ${z0}
set atom 32 z 6.318
  1 settings made for z
set atom $i y ${y0}
set atom 32 y ${y0}
set atom 32 y 4.212
  1 settings made for y
set atom ${layeri} z ${z0}
set atom 31 z ${z0}
set atom 31 z 6.318
  1 settings made for z
set atom ${layeri} y ${y0}
set atom 31 y ${y0}
set atom 31 y 4.212
  1 settings made for y
next            iter
jump            SELF loop

variable        i equal ${irandom}
variable        i equal 18

# 0 for even, take away one to get lower layer
# !=0 for odd, add one to get upper layer
if		"${atomid} == 0" then                   "variable layeri equal ${loweri} "                 else                   "variable layeri equal ${upperi} "
variable layeri equal ${loweri} 
variable layeri equal 17 
variable        z0 equal ${zi}
variable        z0 equal 6.50439881038666
variable        y0 equal ${yi}
variable        y0 equal 12.5739674730301
variable 	zupdate equal ${znew}
variable 	zupdate equal 5.03980092954636
variable 	yupdate equal ${ynew}
variable 	yupdate equal 14.7222514910698

set             atom $i z ${zupdate}
set             atom 18 z ${zupdate}
set             atom 18 z 5.03980092954636
  1 settings made for z
set             atom $i y ${yupdate}
set             atom 18 y ${yupdate}
set             atom 18 y 14.7222514910698
  1 settings made for y
#print " ${zupdate}"
set             atom ${layeri} z ${zupdate}
set             atom 17 z ${zupdate}
set             atom 17 z 5.03980092954636
  1 settings made for z
set             atom ${layeri} y ${yupdate}
set             atom 17 y ${yupdate}
set             atom 17 y 14.7222514910698
  1 settings made for y
#print " ${zupdate}"

print 	"$i"
18
#print  "v_y[i]"
#print z[i]
print 	"${layeri}"
17

run             1 pre no post no
Step Temp E_pair E_mol TotEng Press 
      45            0   -1383352.4            0   -1383352.4 -6.6551352e+09 
      46            0   -834537.95            0   -834537.95 -4.0274469e+09 
Loop time of 0.00542283 on 1 procs for 1 steps with 72 atoms

96.5% CPU use with 1 MPI tasks x 1 OpenMP threads
variable 	nmoves equal ${nmincrement}
variable 	nmoves equal 46
if              "$e <= ${elast}" then                   "variable elast equal $e"                   "variable naccept equal ${increment}"                 elif "${rn} <= ${boltzfactor}"                   "variable elast equal $e"                   "variable naccept equal ${increment}"                 else                   "set atom $i z ${z0}"                   "set atom $i y ${y0}"                   "set atom ${layeri} z ${z0}"                   "set atom ${layeri} y ${y0}"
set atom $i z ${z0}
set atom 18 z ${z0}
set atom 18 z 6.50439881038666
  1 settings made for z
set atom $i y ${y0}
set atom 18 y ${y0}
set atom 18 y 12.5739674730301
  1 settings made for y
set atom ${layeri} z ${z0}
set atom 17 z ${z0}
set atom 17 z 6.50439881038666
  1 settings made for z
set atom ${layeri} y ${y0}
set atom 17 y ${y0}
set atom 17 y 12.5739674730301
  1 settings made for y
next            iter
jump            SELF loop

variable        i equal ${irandom}
variable        i equal 60

# 0 for even, take away one to get lower layer
# !=0 for odd, add one to get upper layer
if		"${atomid} == 0" then                   "variable layeri equal ${loweri} "                 else                   "variable layeri equal ${upperi} "
variable layeri equal ${loweri} 
variable layeri equal 59 
variable        z0 equal ${zi}
variable        z0 equal 9.89119318008423
variable        y0 equal ${yi}
variable        y0 equal 7.93860778713226
variable 	zupdate equal ${znew}
variable 	zupdate equal 9.15285256385803
variable 	yupdate equal ${ynew}
variable 	yupdate equal 9.62111220264434

set             atom $i z ${zupdate}
set             atom 60 z ${zupdate}
set             atom 60 z 9.15285256385803
  1 settings made for z
set             atom $i y ${yupdate}
set             atom 60 y ${yupdate}
set             atom 60 y 9.62111220264434
  1 settings made for y
#print " ${zupdate}"
set             atom ${layeri} z ${zupdate}
set             atom 59 z ${zupdate}
set             atom 59 z 9.15285256385803
  1 settings made for z
set             atom ${layeri} y ${yupdate}
set             atom 59 y ${yupdate}
set             atom 59 y 9.62111220264434
  1 settings made for y
#print " ${zupdate}"

print 	"$i"
60
#print  "v_y[i]"
#print z[i]
print 	"${layeri}"
59

run             1 pre no post no
Step Temp E_pair E_mol TotEng Press 
      46            0   -834537.95            0   -834537.95 -4.0274469e+09 
      47            0   -1386789.8            0   -1386789.8 -6.6767209e+09 
Loop time of 0.0049541 on 1 procs for 1 steps with 72 atoms

97.1% CPU use with 1 MPI tasks x 1 OpenMP threads
variable 	nmoves equal ${nmincrement}
variable 	nmoves equal 47
if              "$e <= ${elast}" then                   "variable elast equal $e"                   "variable naccept equal ${increment}"                 elif "${rn} <= ${boltzfactor}"                   "variable elast equal $e"                   "variable naccept equal ${increment}"                 else                   "set atom $i z ${z0}"                   "set atom $i y ${y0}"                   "set atom ${layeri} z ${z0}"                   "set atom ${layeri} y ${y0}"
set atom $i z ${z0}
set atom 60 z ${z0}
set atom 60 z 9.89119318008423
  1 settings made for z
set atom $i y ${y0}
set atom 60 y ${y0}
set atom 60 y 7.93860778713226
  1 settings made for y
set atom ${layeri} z ${z0}
set atom 59 z ${z0}
set atom 59 z 9.89119318008423
  1 settings made for z
set atom ${layeri} y ${y0}
set atom 59 y ${y0}
set atom 59 y 7.93860778713226
  1 settings made for y
next            iter
jump            SELF loop

variable        i equal ${irandom}
variable        i equal 70

# 0 for even, take away one to get lower layer
# !=0 for odd, add one to get upper layer
if		"${atomid} == 0" then                   "variable layeri equal ${loweri} "                 else                   "variable layeri equal ${upperi} "
variable layeri equal ${loweri} 
variable layeri equal 69 
variable        z0 equal ${zi}
variable        z0 equal 8.424
variable        y0 equal ${yi}
variable        y0 equal 10.53
variable 	zupdate equal ${znew}
variable 	zupdate equal 7.29676828289032
variable 	yupdate equal ${ynew}
variable 	yupdate equal 10.3297748851776

set             atom $i z ${zupdate}
set             atom 70 z ${zupdate}
set             atom 70 z 7.29676828289032
  1 settings made for z
set             atom $i y ${yupdate}
set             atom 70 y ${yupdate}
set             atom 70 y 10.3297748851776
  1 settings made for y
#print " ${zupdate}"
set             atom ${layeri} z ${zupdate}
set             atom 69 z ${zupdate}
set             atom 69 z 7.29676828289032
  1 settings made for z
set             atom ${layeri} y ${yupdate}
set             atom 69 y ${yupdate}
set             atom 69 y 10.3297748851776
  1 settings made for y
#print " ${zupdate}"

print 	"$i"
70
#print  "v_y[i]"
#print z[i]
print 	"${layeri}"
69

run             1 pre no post no
Step Temp E_pair E_mol TotEng Press 
      47            0   -1386789.8            0   -1386789.8 -6.6767209e+09 
      48            0   -1386796.7            0   -1386796.7 -6.6767235e+09 
Loop time of 0.00496387 on 1 procs for 1 steps with 72 atoms

106.3% CPU use with 1 MPI tasks x 1 OpenMP threads
variable 	nmoves equal ${nmincrement}
variable 	nmoves equal 48
if              "$e <= ${elast}" then                   "variable elast equal $e"                   "variable naccept equal ${increment}"                 elif "${rn} <= ${boltzfactor}"                   "variable elast equal $e"                   "variable naccept equal ${increment}"                 else                   "set atom $i z ${z0}"                   "set atom $i y ${y0}"                   "set atom ${layeri} z ${z0}"                   "set atom ${layeri} y ${y0}"
set atom $i z ${z0}
set atom 70 z ${z0}
set atom 70 z 8.424
  1 settings made for z
set atom $i y ${y0}
set atom 70 y ${y0}
set atom 70 y 10.53
  1 settings made for y
set atom ${layeri} z ${z0}
set atom 69 z ${z0}
set atom 69 z 8.424
  1 settings made for z
set atom ${layeri} y ${y0}
set atom 69 y ${y0}
set atom 69 y 10.53
  1 settings made for y
next            iter
jump            SELF loop

variable        i equal ${irandom}
variable        i equal 55

# 0 for even, take away one to get lower layer
# !=0 for odd, add one to get upper layer
if		"${atomid} == 0" then                   "variable layeri equal ${loweri} "                 else                   "variable layeri equal ${upperi} "
variable layeri equal ${upperi} 
variable layeri equal 56 
variable        z0 equal ${zi}
variable        z0 equal 6.318
variable        y0 equal ${yi}
variable        y0 equal 8.424
variable 	zupdate equal ${znew}
variable 	zupdate equal 5.8471256904602
variable 	yupdate equal ${ynew}
variable 	yupdate equal 7.07873419427872

set             atom $i z ${zupdate}
set             atom 55 z ${zupdate}
set             atom 55 z 5.8471256904602
  1 settings made for z
set             atom $i y ${yupdate}
set             atom 55 y ${yupdate}
set             atom 55 y 7.07873419427872
  1 settings made for y
#print " ${zupdate}"
set             atom ${layeri} z ${zupdate}
set             atom 56 z ${zupdate}
set             atom 56 z 5.8471256904602
  1 settings made for z
set             atom ${layeri} y ${yupdate}
set             atom 56 y ${yupdate}
set             atom 56 y 7.07873419427872
  1 settings made for y
#print " ${zupdate}"

print 	"$i"
55
#print  "v_y[i]"
#print z[i]
print 	"${layeri}"
56

run             1 pre no post no
Step Temp E_pair E_mol TotEng Press 
      48            0   -1386796.7            0   -1386796.7 -6.6767235e+09 
      49            0   -1335214.2            0   -1335214.2 -6.4202152e+09 
Loop time of 0.00506186 on 1 procs for 1 steps with 72 atoms

97.3% CPU use with 1 MPI tasks x 1 OpenMP threads
variable 	nmoves equal ${nmincrement}
variable 	nmoves equal 49
if              "$e <= ${elast}" then                   "variable elast equal $e"                   "variable naccept equal ${increment}"                 elif "${rn} <= ${boltzfactor}"                   "variable elast equal $e"                   "variable naccept equal ${increment}"                 else                   "set atom $i z ${z0}"                   "set atom $i y ${y0}"                   "set atom ${layeri} z ${z0}"                   "set atom ${layeri} y ${y0}"
set atom $i z ${z0}
set atom 55 z ${z0}
set atom 55 z 6.318
  1 settings made for z
set atom $i y ${y0}
set atom 55 y ${y0}
set atom 55 y 8.424
  1 settings made for y
set atom ${layeri} z ${z0}
set atom 56 z ${z0}
set atom 56 z 6.318
  1 settings made for z
set atom ${layeri} y ${y0}
set atom 56 y ${y0}
set atom 56 y 8.424
  1 settings made for y
next            iter
jump            SELF loop

variable        i equal ${irandom}
variable        i equal 42

# 0 for even, take away one to get lower layer
# !=0 for odd, add one to get upper layer
if		"${atomid} == 0" then                   "variable layeri equal ${loweri} "                 else                   "variable layeri equal ${upperi} "
variable layeri equal ${loweri} 
variable layeri equal 41 
variable        z0 equal ${zi}
variable        z0 equal 6.49236224842072
variable        y0 equal ${yi}
variable        y0 equal 8.19303010034561
variable 	zupdate equal ${znew}
variable 	zupdate equal 7.50404976558686
variable 	yupdate equal ${ynew}
variable 	yupdate equal 7.14987222480774

set             atom $i z ${zupdate}
set             atom 42 z ${zupdate}
set             atom 42 z 7.50404976558686
  1 settings made for z
set             atom $i y ${yupdate}
set             atom 42 y ${yupdate}
set             atom 42 y 7.14987222480774
  1 settings made for y
#print " ${zupdate}"
set             atom ${layeri} z ${zupdate}
set             atom 41 z ${zupdate}
set             atom 41 z 7.50404976558686
  1 settings made for z
set             atom ${layeri} y ${yupdate}
set             atom 41 y ${yupdate}
set             atom 41 y 7.14987222480774
  1 settings made for y
#print " ${zupdate}"

print 	"$i"
42
#print  "v_y[i]"
#print z[i]
print 	"${layeri}"
41

run             1 pre no post no
Step Temp E_pair E_mol TotEng Press 
      49            0   -1335214.2            0   -1335214.2 -6.4202152e+09 
      50            0   -1335192.1            0   -1335192.1 -6.4201273e+09 
Loop time of 0.00555396 on 1 procs for 1 steps with 72 atoms

96.3% CPU use with 1 MPI tasks x 1 OpenMP threads
variable 	nmoves equal ${nmincrement}
variable 	nmoves equal 50
if              "$e <= ${elast}" then                   "variable elast equal $e"                   "variable naccept equal ${increment}"                 elif "${rn} <= ${boltzfactor}"                   "variable elast equal $e"                   "variable naccept equal ${increment}"                 else                   "set atom $i z ${z0}"                   "set atom $i y ${y0}"                   "set atom ${layeri} z ${z0}"                   "set atom ${layeri} y ${y0}"
set atom $i z ${z0}
set atom 42 z ${z0}
set atom 42 z 6.49236224842072
  1 settings made for z
set atom $i y ${y0}
set atom 42 y ${y0}
set atom 42 y 8.19303010034561
  1 settings made for y
set atom ${layeri} z ${z0}
set atom 41 z ${z0}
set atom 41 z 6.49236224842072
  1 settings made for z
set atom ${layeri} y ${y0}
set atom 41 y ${y0}
set atom 41 y 8.19303010034561
=======
run             1 pre no post no
Step Temp E_pair E_mol TotEng Press 
      99            0    -1435.393            0    -1435.393   -3.5318702 
     100            0   -1438.7741            0   -1438.7741   -4.4499699 
Loop time of 0.0401568 on 1 procs for 1 steps with 72 atoms

99.6% CPU use with 1 MPI tasks x 1 OpenMP threads

if              "$e <= ${elast}" then                   "variable elast equal $e"                   "variable naccept equal ${increment}"                 elif "${rn} <= ${boltzfactor}"                   "variable elast equal $e"                   "variable naccept equal ${increment}"                 else                   "set atom $i z ${z0}"                   "set atom $i y ${y0}"                   "set atom ${layeri} z ${z0}"                   "set atom ${layeri} y ${y0}"
set atom $i z ${z0}
set atom 19 z ${z0}
set atom 19 z 6.44356555271149
  1 settings made for z
set atom $i y ${y0}
set atom 19 y ${y0}
set atom 19 y 2.00341308689117
  1 settings made for y
set atom ${layeri} z ${z0}
set atom 20 z ${z0}
set atom 20 z 6.44356555271149
  1 settings made for z
set atom ${layeri} y ${y0}
set atom 20 y ${y0}
set atom 20 y 2.00341308689117
>>>>>>> fdf96370cf386e06c22b3050f8f4a89c2c8ce0fe
  1 settings made for y
variable 	nmoves equal ${nmincrement}
variable 	nmoves equal 100
next            iter
jump            SELF loop

# final energy and stats

variable       nb equal nbuild
variable       nbuild equal ${nb}
<<<<<<< HEAD
variable       nbuild equal 47
=======
variable       nbuild equal 88
>>>>>>> fdf96370cf386e06c22b3050f8f4a89c2c8ce0fe
variable       ratio equal "v_naccept/v_nmoves"

run             0
WARNING: No fixes defined, atoms won't move (../verlet.cpp:55)
PPPM initialization ...
WARNING: Using polynomial approximation for long-range coulomb (../kspace.cpp:316)
  G vector (1/distance) = 0.400041
  grid = 8 15 15
  stencil order = 5
  estimated absolute RMS force accuracy = 0.000671313
  estimated relative force accuracy = 4.66201e-05
  using double precision FFTs
  3d grid and FFT values/proc = 8228 1800
Memory usage per processor = 4.7433 Mbytes
Step Temp E_pair E_mol TotEng Press 
<<<<<<< HEAD
      50            0     -1386860            0     -1386860 -6.6769218e+09 
Loop time of 1.90735e-06 on 1 procs for 0 steps with 72 atoms
=======
     100            0   -1449.2852            0   -1449.2852   -41.968641 
Loop time of 2.14577e-06 on 1 procs for 0 steps with 72 atoms
>>>>>>> fdf96370cf386e06c22b3050f8f4a89c2c8ce0fe

0.0% CPU use with 1 MPI tasks x 1 OpenMP threads

MPI task timing breakdown:
Section |  min time  |  avg time  |  max time  |%varavg| %total
---------------------------------------------------------------
Pair    | 0          | 0          | 0          |   0.0 |  0.00
Kspace  | 0          | 0          | 0          |   0.0 |  0.00
Neigh   | 0          | 0          | 0          |   0.0 |  0.00
Comm    | 0          | 0          | 0          |   0.0 |  0.00
Output  | 0          | 0          | 0          |   0.0 |  0.00
Modify  | 0          | 0          | 0          |   0.0 |  0.00
Other   |            | 2.146e-06  |            |       |100.00

Nlocal:    72 ave 72 max 72 min
Histogram: 1 0 0 0 0 0 0 0 0 0
Nghost:    2447 ave 2447 max 2447 min
Histogram: 1 0 0 0 0 0 0 0 0 0
<<<<<<< HEAD
Neighs:    16504 ave 16504 max 16504 min
Histogram: 1 0 0 0 0 0 0 0 0 0

Total # of neighbors = 16504
Ave neighs/atom = 229.222
=======
Neighs:    7958 ave 7958 max 7958 min
Histogram: 1 0 0 0 0 0 0 0 0 0

Total # of neighbors = 7958
Ave neighs/atom = 110.528
>>>>>>> fdf96370cf386e06c22b3050f8f4a89c2c8ce0fe
Neighbor list builds = 0
Dangerous builds = 0

#-------------------------END OF MONTE CARLO------------------------
print           "MC stats:"
MC stats:
print           "  neighbor list rebuilds = ${nbuild}"
<<<<<<< HEAD
  neighbor list rebuilds = 47
print           "  starting energy = ${estart}"
  starting energy = -1481.42658366852
print           "  final energy = $e"
  final energy = -1386860.00619902
=======
  neighbor list rebuilds = 88
print           "  starting energy = ${estart}"
  starting energy = -1443.5225841969
print           "  final energy = $e"
  final energy = -1449.28521613178
>>>>>>> fdf96370cf386e06c22b3050f8f4a89c2c8ce0fe
print           "  minimum energy of perfect lattice = ${emin}"
  minimum energy of perfect lattice = -1481.42658366852
print           "  accepted MC moves = ${naccept}"
<<<<<<< HEAD
  accepted MC moves = 7
print 		"  Total moves = ${nmoves}"
  Total moves = 50
print 		"  Ratio of accepted/Total = ${ratio}"
  Ratio of accepted/Total = 0.14


#-----------------------MINIMISATION-------------------------------
#reset_timestep	0 #start at 0
#thermo 10 #how often to output properties
#thermo_style custom step pe #custom specification of what to print
#dump 1 all custom 1 dump.lammpstrj id type xs ys zs  #dump info to trjectory file
#dump 2 all xyz 1 dump.1d.xyz  #dump info to xyz file
#dump visual all cfg 10 dump.1d.*.cfg mass type xs ys zs vx vy vz
#min_style cg #apply conjugate gradients
#minimize 1e-15 1e-15 5000 5000 #minimiser settings

#----------------------SIMULATION DONE-------------------------------

#variable natoms equal "count(all)"
#variable teng equal "c_eatoms"
#variable length equal "lx"
#variable ecoh equal "v_teng/v_natoms"

#print "Total energy (eV) = ${teng};"
#print "Number of atoms = ${natoms};"
#print "Lattice constant (Angstoms) = ${length};"
#print "Cohesive energy (eV) = ${ecoh};"

print "Calculation complete"
Calculation complete
Total wall time: 0:00:00
=======
  accepted MC moves = 3
print 		"  Total moves = ${nmoves}"
  Total moves = 100
print 		"  Ratio of accepted/Total = ${ratio}"
  Ratio of accepted/Total = 0.03

print "Calculation complete"
Calculation complete
Total wall time: 0:00:04
>>>>>>> fdf96370cf386e06c22b3050f8f4a89c2c8ce0fe
