LAMMPS (1 Jul 2016-ICMS)
WARNING: OMP_NUM_THREADS environment is not set. (../comm.cpp:90)
  using 1 OpenMP thread(s) per MPI task
#---------------------------WELCOME----------------------------
print "Optimise lattice constant of MgO crystal"
Optimise lattice constant of MgO crystal

#--------------------INITIALISATION----------------------------
units metal		#distance in A and energy in eV
atom_style charge	#specifies what properties to associate with atoms

#cell vectors
variable a equal  4.212
atom_modify     map array sort 0 0.0

region box block 0.0 4.212 -200.0 200.0 -200.0 200.0 units box
boundary p p p  #PBC in x-direction
create_box 2 box  #generate simulation box
Created orthogonal box = (0 -200 -200) to (4.212 200 200)
  1 by 1 by 1 MPI processor grid

# set these parameters
# make sure neigh skin > 2*deltamove

variable iter loop 100	           # number of Monte Carlo moves
variable deltaperturb equal 0.2   #0.2 max size of initial perturbation per dim
variable deltamove equal 1.0       #0.1 max size of MC move in one dimension
variable kT equal 0.75             # effective T in Boltzmann factor
variable seed equal 582783         # RNG seed

#read in coordinates
read_dump testmc.xyz 0 x y z box no add yes format xyz
  orthogonal box = (0 -200 -200) to (4.212 200 200)
  0 atoms before read
  72 atoms in snapshot
  0 atoms purged
  0 atoms replaced
  0 atoms trimmed
  72 atoms added
  72 atoms after read

#set up potential
set type 1 charge  2.000000
  36 settings made for charge
set type 2 charge -2.000000
  36 settings made for charge

mass 1 24.305 #specify mass of atoms
mass 2 15.9994 #specify mass of atoms

pair_style hybrid/overlay buck 8.0 coul/long 8.0
pair_coeff 1 2 buck 1284.38000  0.299700  0.000000 8.0
pair_coeff 2 2 buck 9574.95996  0.219200  32.00000 8.0
pair_coeff * * coul/long
kspace_style pppm 1.0e-4
pair_modify table 0

neighbor 2.0 bin
neigh_modify delay 0 every 1 check yes

variable        e equal pe

# run 0 to get energy of perfect lattice
# emin = minimum energy

run             0
WARNING: No fixes defined, atoms won't move (../verlet.cpp:55)
PPPM initialization ...
WARNING: Using polynomial approximation for long-range coulomb (../kspace.cpp:316)
  G vector (1/distance) = 0.305703
  grid = 6 150 150
  stencil order = 5
  estimated absolute RMS force accuracy = 0.00150384
  estimated relative force accuracy = 0.000104436
  using double precision FFTs
  3d grid and FFT values/proc = 312325 135000
Neighbor list info ...
  2 neighbor list requests
  update every 1 steps, delay 0 steps, check yes
  max neighbors/atom: 2000, page size: 100000
  master list distance cutoff = 10
  ghost atom cutoff = 10
  binsize = 5 -> bins = 1 80 80
Memory usage per processor = 29.1547 Mbytes
Step Temp E_pair E_mol TotEng Press 
       0            0   -1461.6701            0   -1461.6701   -110.70088 
Loop time of 1.19209e-06 on 1 procs for 0 steps with 72 atoms

0.0% CPU use with 1 MPI tasks x 1 OpenMP threads

MPI task timing breakdown:
Section |  min time  |  avg time  |  max time  |%varavg| %total
---------------------------------------------------------------
Pair    | 0          | 0          | 0          |   0.0 |  0.00
Kspace  | 0          | 0          | 0          |   0.0 |  0.00
Neigh   | 0          | 0          | 0          |   0.0 |  0.00
Comm    | 0          | 0          | 0          |   0.0 |  0.00
Output  | 0          | 0          | 0          |   0.0 |  0.00
Modify  | 0          | 0          | 0          |   0.0 |  0.00
Other   |            | 1.192e-06  |            |       |100.00

Nlocal:    72 ave 72 max 72 min
Histogram: 1 0 0 0 0 0 0 0 0 0
Nghost:    324 ave 324 max 324 min
Histogram: 1 0 0 0 0 0 0 0 0 0
Neighs:    8048 ave 8048 max 8048 min
Histogram: 1 0 0 0 0 0 0 0 0 0

Total # of neighbors = 8048
Ave neighs/atom = 111.778
Neighbor list builds = 0
Dangerous builds = 0
variable        emin equal $e
variable        emin equal -1461.67011902226

# disorder the system
# estart = initial energy

variable        z atom z+v_deltaperturb*random(-1.0,1.0,${seed})
variable        z atom z+v_deltaperturb*random(-1.0,1.0,582783)
variable        y atom y+v_deltaperturb*random(-1.0,1.0,${seed})
variable        y atom y+v_deltaperturb*random(-1.0,1.0,582783)

set             group all z v_z
  72 settings made for z
set             group all y v_y
  72 settings made for y

dump 1 all custom 1 dumpmc.lammpstrj id type xs ys zs  #dump info to trjectory file

run             0
WARNING: No fixes defined, atoms won't move (../verlet.cpp:55)
PPPM initialization ...
WARNING: Using polynomial approximation for long-range coulomb (../kspace.cpp:316)
  G vector (1/distance) = 0.305703
  grid = 6 150 150
  stencil order = 5
  estimated absolute RMS force accuracy = 0.00150384
  estimated relative force accuracy = 0.000104436
  using double precision FFTs
  3d grid and FFT values/proc = 312325 135000
Memory usage per processor = 30.4074 Mbytes
Step Temp E_pair E_mol TotEng Press 
       0            0   -1443.5226            0   -1443.5226   -62.243746 
Loop time of 2.14577e-06 on 1 procs for 0 steps with 72 atoms

0.0% CPU use with 1 MPI tasks x 1 OpenMP threads

MPI task timing breakdown:
Section |  min time  |  avg time  |  max time  |%varavg| %total
---------------------------------------------------------------
Pair    | 0          | 0          | 0          |   0.0 |  0.00
Kspace  | 0          | 0          | 0          |   0.0 |  0.00
Neigh   | 0          | 0          | 0          |   0.0 |  0.00
Comm    | 0          | 0          | 0          |   0.0 |  0.00
Output  | 0          | 0          | 0          |   0.0 |  0.00
Modify  | 0          | 0          | 0          |   0.0 |  0.00
Other   |            | 2.146e-06  |            |       |100.00

Nlocal:    72 ave 72 max 72 min
Histogram: 1 0 0 0 0 0 0 0 0 0
Nghost:    324 ave 324 max 324 min
Histogram: 1 0 0 0 0 0 0 0 0 0
Neighs:    7988 ave 7988 max 7988 min
Histogram: 1 0 0 0 0 0 0 0 0 0

Total # of neighbors = 7988
Ave neighs/atom = 110.944
Neighbor list builds = 0
Dangerous builds = 0

variable        estart equal $e
variable        estart equal -1443.5225841969
variable        elast equal $e
variable        elast equal -1443.5225841969

#-------------------- loop over Monte Carlo moves ----------------------------

variable        naccept equal 0
variable        increment equal v_naccept+1
variable 	nmoves equal 0.0
variable 	nmincrement equal v_nmoves+1
variable        irandom equal floor(atoms*random(0.0,1.0,${seed})+1)
variable        irandom equal floor(atoms*random(0.0,1.0,582783)+1)
variable        rn equal random(0.0,1.0,${seed})
variable        rn equal random(0.0,1.0,582783)
variable        boltzfactor equal "exp(atoms*(v_elast - v_e) / v_kT)"

variable 	atomid equal v_i%2

variable        znew equal z[v_i]+v_deltamove*random(-1.0,1.0,${seed})
variable        znew equal z[v_i]+v_deltamove*random(-1.0,1.0,582783)
variable        ynew equal y[v_i]+v_deltamove*random(-1.0,1.0,${seed})
variable        ynew equal y[v_i]+v_deltamove*random(-1.0,1.0,582783)
variable        zi equal z[v_i]
variable        yi equal y[v_i]
variable	layeri equal 0
variable 	loweri equal "v_i - 1"
variable 	upperi equal "v_i + 1"

#--------------------- LOOP -----------------------------------
label           loop

variable        i equal ${irandom}
variable        i equal 48

# 0 for even, take away one to get lower layer
# !=0 for odd, add one to get upper layer
if		"${atomid} == 0" then                   "variable layeri equal ${loweri} "                 else                   "variable layeri equal ${upperi} "
variable layeri equal ${loweri} 
variable layeri equal 47 
variable        z0 equal ${zi}
variable        z0 equal 10.6378340291977
variable        y0 equal ${yi}
variable        y0 equal 6.13167180347443

set             atom $i z ${znew}
set             atom 48 z ${znew}
set             atom 48 z 10.9396003055573
  1 settings made for z
set             atom $i y ${ynew}
set             atom 48 y ${ynew}
set             atom 48 y 5.25720204639435
  1 settings made for y
set             atom ${layeri} z ${znew}
set             atom 47 z ${znew}
set             atom 47 z 11.6236435937882
  1 settings made for z
set             atom ${layeri} y ${ynew}
set             atom 47 y ${ynew}
set             atom 47 y 4.56969668197632
  1 settings made for y

run             1 pre no post no
Step Temp E_pair E_mol TotEng Press 
       0            0   -1443.5226            0   -1443.5226   -62.243746 
       1            0   -1406.9594            0   -1406.9594    60.476976 
Loop time of 0.040627 on 1 procs for 1 steps with 72 atoms

98.5% CPU use with 1 MPI tasks x 1 OpenMP threads

if              "$e <= ${elast}" then                   "variable elast equal $e"                   "variable naccept equal ${increment}"                 elif "${rn} <= ${boltzfactor}"                   "variable elast equal $e"                   "variable naccept equal ${increment}"                 else                   "set atom $i z ${z0}"                   "set atom $i y ${y0}"                   "set atom ${layeri} z ${z0}"                   "set atom ${layeri} y ${y0}"
set atom $i z ${z0}
set atom 48 z ${z0}
set atom 48 z 10.6378340291977
  1 settings made for z
set atom $i y ${y0}
set atom 48 y ${y0}
set atom 48 y 6.13167180347443
  1 settings made for y
set atom ${layeri} z ${z0}
set atom 47 z ${z0}
set atom 47 z 10.6378340291977
  1 settings made for z
set atom ${layeri} y ${y0}
set atom 47 y ${y0}
set atom 47 y 6.13167180347443
  1 settings made for y
variable 	nmoves equal ${nmincrement}
variable 	nmoves equal 1
next            iter
jump            SELF loop

variable        i equal ${irandom}
variable        i equal 33

# 0 for even, take away one to get lower layer
# !=0 for odd, add one to get upper layer
if		"${atomid} == 0" then                   "variable layeri equal ${loweri} "                 else                   "variable layeri equal ${upperi} "
variable layeri equal ${upperi} 
variable layeri equal 34 
variable        z0 equal ${zi}
variable        z0 equal 8.33099121952057
variable        y0 equal ${yi}
variable        y0 equal 4.32470840167999

set             atom $i z ${znew}
set             atom 33 z ${znew}
set             atom 33 z 7.75507159137726
  1 settings made for z
set             atom $i y ${ynew}
set             atom 33 y ${ynew}
set             atom 33 y 4.34975701522827
  1 settings made for y
set             atom ${layeri} z ${znew}
set             atom 34 z ${znew}
set             atom 34 z 8.17741031551361
  1 settings made for z
set             atom ${layeri} y ${ynew}
set             atom 34 y ${ynew}
set             atom 34 y 3.87168604087829
  1 settings made for y

run             1 pre no post no
Step Temp E_pair E_mol TotEng Press 
       1            0   -1406.9594            0   -1406.9594    60.476976 
       2            0   -1433.4456            0   -1433.4456   -21.748575 
Loop time of 0.0402141 on 1 procs for 1 steps with 72 atoms

99.5% CPU use with 1 MPI tasks x 1 OpenMP threads

if              "$e <= ${elast}" then                   "variable elast equal $e"                   "variable naccept equal ${increment}"                 elif "${rn} <= ${boltzfactor}"                   "variable elast equal $e"                   "variable naccept equal ${increment}"                 else                   "set atom $i z ${z0}"                   "set atom $i y ${y0}"                   "set atom ${layeri} z ${z0}"                   "set atom ${layeri} y ${y0}"
set atom $i z ${z0}
set atom 33 z ${z0}
set atom 33 z 8.33099121952057
  1 settings made for z
set atom $i y ${y0}
set atom 33 y ${y0}
set atom 33 y 4.32470840167999
  1 settings made for y
set atom ${layeri} z ${z0}
set atom 34 z ${z0}
set atom 34 z 8.33099121952057
  1 settings made for z
set atom ${layeri} y ${y0}
set atom 34 y ${y0}
set atom 34 y 4.32470840167999
  1 settings made for y
variable 	nmoves equal ${nmincrement}
variable 	nmoves equal 2
next            iter
jump            SELF loop

variable        i equal ${irandom}
variable        i equal 13

# 0 for even, take away one to get lower layer
# !=0 for odd, add one to get upper layer
if		"${atomid} == 0" then                   "variable layeri equal ${loweri} "                 else                   "variable layeri equal ${upperi} "
variable layeri equal ${upperi} 
variable layeri equal 14 
variable        z0 equal ${zi}
variable        z0 equal -0.133233547210693
variable        y0 equal ${yi}
variable        y0 equal 2.05542491054535

set             atom $i z ${znew}
set             atom 13 z ${znew}
set             atom 13 z -0.480211138725281
  1 settings made for z
set             atom $i y ${ynew}
set             atom 13 y ${ynew}
set             atom 13 y 1.25223670578003
  1 settings made for y
set             atom ${layeri} z ${znew}
set             atom 14 z ${znew}
set             atom 14 z -1.04281795024872
  1 settings made for z
set             atom ${layeri} y ${ynew}
set             atom 14 y ${ynew}
set             atom 14 y 1.04500518417358
  1 settings made for y

run             1 pre no post no
Step Temp E_pair E_mol TotEng Press 
       2            0   -1433.4456            0   -1433.4456   -21.748575 
       3            0   -1430.2386            0   -1430.2386   -10.756685 
Loop time of 0.0396252 on 1 procs for 1 steps with 72 atoms

100.9% CPU use with 1 MPI tasks x 1 OpenMP threads

if              "$e <= ${elast}" then                   "variable elast equal $e"                   "variable naccept equal ${increment}"                 elif "${rn} <= ${boltzfactor}"                   "variable elast equal $e"                   "variable naccept equal ${increment}"                 else                   "set atom $i z ${z0}"                   "set atom $i y ${y0}"                   "set atom ${layeri} z ${z0}"                   "set atom ${layeri} y ${y0}"
set atom $i z ${z0}
set atom 13 z ${z0}
set atom 13 z -0.133233547210693
  1 settings made for z
set atom $i y ${y0}
set atom 13 y ${y0}
set atom 13 y 2.05542491054535
  1 settings made for y
set atom ${layeri} z ${z0}
set atom 14 z ${z0}
set atom 14 z -0.133233547210693
  1 settings made for z
set atom ${layeri} y ${y0}
set atom 14 y ${y0}
set atom 14 y 2.05542491054535
  1 settings made for y
variable 	nmoves equal ${nmincrement}
variable 	nmoves equal 3
next            iter
jump            SELF loop

variable        i equal ${irandom}
variable        i equal 13

# 0 for even, take away one to get lower layer
# !=0 for odd, add one to get upper layer
if		"${atomid} == 0" then                   "variable layeri equal ${loweri} "                 else                   "variable layeri equal ${upperi} "
variable layeri equal ${upperi} 
variable layeri equal 14 
variable        z0 equal ${zi}
variable        z0 equal -0.133233547210693
variable        y0 equal ${yi}
variable        y0 equal 2.05542491054535

set             atom $i z ${znew}
set             atom 13 z ${znew}
set             atom 13 z 0.494594216346741
  1 settings made for z
set             atom $i y ${ynew}
set             atom 13 y ${ynew}
set             atom 13 y 2.2102505979538
  1 settings made for y
set             atom ${layeri} z ${znew}
set             atom 14 z ${znew}
set             atom 14 z 1.40673911571503
  1 settings made for z
set             atom ${layeri} y ${ynew}
set             atom 14 y ${ynew}
set             atom 14 y 2.96026263809204
  1 settings made for y

run             1 pre no post no
Step Temp E_pair E_mol TotEng Press 
       3            0   -1430.2386            0   -1430.2386   -10.756685 
       4            0   -1398.4788            0   -1398.4788    74.033273 
Loop time of 0.0404 on 1 procs for 1 steps with 72 atoms

99.0% CPU use with 1 MPI tasks x 1 OpenMP threads

if              "$e <= ${elast}" then                   "variable elast equal $e"                   "variable naccept equal ${increment}"                 elif "${rn} <= ${boltzfactor}"                   "variable elast equal $e"                   "variable naccept equal ${increment}"                 else                   "set atom $i z ${z0}"                   "set atom $i y ${y0}"                   "set atom ${layeri} z ${z0}"                   "set atom ${layeri} y ${y0}"
set atom $i z ${z0}
set atom 13 z ${z0}
set atom 13 z -0.133233547210693
  1 settings made for z
set atom $i y ${y0}
set atom 13 y ${y0}
set atom 13 y 2.05542491054535
  1 settings made for y
set atom ${layeri} z ${z0}
set atom 14 z ${z0}
set atom 14 z -0.133233547210693
  1 settings made for z
set atom ${layeri} y ${y0}
set atom 14 y ${y0}
set atom 14 y 2.05542491054535
  1 settings made for y
variable 	nmoves equal ${nmincrement}
variable 	nmoves equal 4
next            iter
jump            SELF loop

variable        i equal ${irandom}
variable        i equal 35

# 0 for even, take away one to get lower layer
# !=0 for odd, add one to get upper layer
if		"${atomid} == 0" then                   "variable layeri equal ${loweri} "                 else                   "variable layeri equal ${upperi} "
variable layeri equal ${upperi} 
variable layeri equal 36 
variable        z0 equal ${zi}
variable        z0 equal 10.4223955440521
variable        y0 equal ${yi}
variable        y0 equal 4.11496549797058

set             atom $i z ${znew}
set             atom 35 z ${znew}
set             atom 35 z 10.8361342716217
  1 settings made for z
set             atom $i y ${ynew}
set             atom 35 y ${ynew}
set             atom 35 y 4.76000505638123
  1 settings made for y
set             atom ${layeri} z ${znew}
set             atom 36 z ${znew}
set             atom 36 z 10.641669588089
  1 settings made for z
set             atom ${layeri} y ${ynew}
set             atom 36 y ${ynew}
set             atom 36 y 4.15274244499207
  1 settings made for y

run             1 pre no post no
Step Temp E_pair E_mol TotEng Press 
       4            0   -1398.4788            0   -1398.4788    74.033273 
       5            0   -1440.2639            0   -1440.2639   -49.851214 
Loop time of 0.0395701 on 1 procs for 1 steps with 72 atoms

101.1% CPU use with 1 MPI tasks x 1 OpenMP threads

if              "$e <= ${elast}" then                   "variable elast equal $e"                   "variable naccept equal ${increment}"                 elif "${rn} <= ${boltzfactor}"                   "variable elast equal $e"                   "variable naccept equal ${increment}"                 else                   "set atom $i z ${z0}"                   "set atom $i y ${y0}"                   "set atom ${layeri} z ${z0}"                   "set atom ${layeri} y ${y0}"
set atom $i z ${z0}
set atom 35 z ${z0}
set atom 35 z 10.4223955440521
  1 settings made for z
set atom $i y ${y0}
set atom 35 y ${y0}
set atom 35 y 4.11496549797058
  1 settings made for y
set atom ${layeri} z ${z0}
set atom 36 z ${z0}
set atom 36 z 10.4223955440521
  1 settings made for z
set atom ${layeri} y ${y0}
set atom 36 y ${y0}
set atom 36 y 4.11496549797058
  1 settings made for y
variable 	nmoves equal ${nmincrement}
variable 	nmoves equal 5
next            iter
jump            SELF loop

variable        i equal ${irandom}
variable        i equal 64

# 0 for even, take away one to get lower layer
# !=0 for odd, add one to get upper layer
if		"${atomid} == 0" then                   "variable layeri equal ${loweri} "                 else                   "variable layeri equal ${upperi} "
variable layeri equal ${loweri} 
variable layeri equal 63 
variable        z0 equal ${zi}
variable        z0 equal 2.08824604129791
variable        y0 equal ${yi}
variable        y0 equal 10.3509613800049

set             atom $i z ${znew}
set             atom 64 z ${znew}
set             atom 64 z 2.53839915370941
  1 settings made for z
set             atom $i y ${ynew}
set             atom 64 y ${ynew}
set             atom 64 y 9.88591747760773
  1 settings made for y
set             atom ${layeri} z ${znew}
set             atom 63 z ${znew}
set             atom 63 z 3.05056994533539
  1 settings made for z
set             atom ${layeri} y ${ynew}
set             atom 63 y ${ynew}
set             atom 63 y 9.34789519786835
  1 settings made for y

run             1 pre no post no
Step Temp E_pair E_mol TotEng Press 
       5            0   -1440.2639            0   -1440.2639   -49.851214 
       6            0   -1416.6247            0   -1416.6247     41.63449 
Loop time of 0.0396781 on 1 procs for 1 steps with 72 atoms

90.7% CPU use with 1 MPI tasks x 1 OpenMP threads

if              "$e <= ${elast}" then                   "variable elast equal $e"                   "variable naccept equal ${increment}"                 elif "${rn} <= ${boltzfactor}"                   "variable elast equal $e"                   "variable naccept equal ${increment}"                 else                   "set atom $i z ${z0}"                   "set atom $i y ${y0}"                   "set atom ${layeri} z ${z0}"                   "set atom ${layeri} y ${y0}"
set atom $i z ${z0}
set atom 64 z ${z0}
set atom 64 z 2.08824604129791
  1 settings made for z
set atom $i y ${y0}
set atom 64 y ${y0}
set atom 64 y 10.3509613800049
  1 settings made for y
set atom ${layeri} z ${z0}
set atom 63 z ${z0}
set atom 63 z 2.08824604129791
  1 settings made for z
set atom ${layeri} y ${y0}
set atom 63 y ${y0}
set atom 63 y 10.3509613800049
  1 settings made for y
variable 	nmoves equal ${nmincrement}
variable 	nmoves equal 6
next            iter
jump            SELF loop

variable        i equal ${irandom}
variable        i equal 33

# 0 for even, take away one to get lower layer
# !=0 for odd, add one to get upper layer
if		"${atomid} == 0" then                   "variable layeri equal ${loweri} "                 else                   "variable layeri equal ${upperi} "
variable layeri equal ${upperi} 
variable layeri equal 34 
variable        z0 equal ${zi}
variable        z0 equal 8.33099121952057
variable        y0 equal ${yi}
variable        y0 equal 4.32470840167999

set             atom $i z ${znew}
set             atom 33 z ${znew}
set             atom 33 z 9.28318316841126
  1 settings made for z
set             atom $i y ${ynew}
set             atom 33 y ${ynew}
set             atom 33 y 3.38172048282623
  1 settings made for y
set             atom ${layeri} z ${znew}
set             atom 34 z ${znew}
set             atom 34 z 9.1381471862793
  1 settings made for z
set             atom ${layeri} y ${ynew}
set             atom 34 y ${ynew}
set             atom 34 y 3.00123137187957
  1 settings made for y

run             1 pre no post no
Step Temp E_pair E_mol TotEng Press 
       6            0   -1416.6247            0   -1416.6247     41.63449 
       7            0    -1391.578            0    -1391.578    122.04468 
Loop time of 0.0401371 on 1 procs for 1 steps with 72 atoms

109.6% CPU use with 1 MPI tasks x 1 OpenMP threads

if              "$e <= ${elast}" then                   "variable elast equal $e"                   "variable naccept equal ${increment}"                 elif "${rn} <= ${boltzfactor}"                   "variable elast equal $e"                   "variable naccept equal ${increment}"                 else                   "set atom $i z ${z0}"                   "set atom $i y ${y0}"                   "set atom ${layeri} z ${z0}"                   "set atom ${layeri} y ${y0}"
set atom $i z ${z0}
set atom 33 z ${z0}
set atom 33 z 8.33099121952057
  1 settings made for z
set atom $i y ${y0}
set atom 33 y ${y0}
set atom 33 y 4.32470840167999
  1 settings made for y
set atom ${layeri} z ${z0}
set atom 34 z ${z0}
set atom 34 z 8.33099121952057
  1 settings made for z
set atom ${layeri} y ${y0}
set atom 34 y ${y0}
set atom 34 y 4.32470840167999
  1 settings made for y
variable 	nmoves equal ${nmincrement}
variable 	nmoves equal 7
next            iter
jump            SELF loop

variable        i equal ${irandom}
variable        i equal 43

# 0 for even, take away one to get lower layer
# !=0 for odd, add one to get upper layer
if		"${atomid} == 0" then                   "variable layeri equal ${loweri} "                 else                   "variable layeri equal ${upperi} "
variable layeri equal ${upperi} 
variable layeri equal 44 
variable        z0 equal ${zi}
variable        z0 equal 6.35332054424286
variable        y0 equal ${yi}
variable        y0 equal 6.47256147193909

set             atom $i z ${znew}
set             atom 43 z ${znew}
set             atom 43 z 6.82833058166504
  1 settings made for z
set             atom $i y ${ynew}
set             atom 43 y ${ynew}
set             atom 43 y 6.38951861190796
  1 settings made for y
set             atom ${layeri} z ${znew}
set             atom 44 z ${znew}
set             atom 44 z 6.07487696933746
  1 settings made for z
set             atom ${layeri} y ${ynew}
set             atom 44 y ${ynew}
set             atom 44 y 5.96846091079712
  1 settings made for y

run             1 pre no post no
Step Temp E_pair E_mol TotEng Press 
       7            0    -1391.578            0    -1391.578    122.04468 
       8            0   -1437.1652            0   -1437.1652   -51.132772 
Loop time of 0.0398662 on 1 procs for 1 steps with 72 atoms

100.3% CPU use with 1 MPI tasks x 1 OpenMP threads

if              "$e <= ${elast}" then                   "variable elast equal $e"                   "variable naccept equal ${increment}"                 elif "${rn} <= ${boltzfactor}"                   "variable elast equal $e"                   "variable naccept equal ${increment}"                 else                   "set atom $i z ${z0}"                   "set atom $i y ${y0}"                   "set atom ${layeri} z ${z0}"                   "set atom ${layeri} y ${y0}"
set atom $i z ${z0}
set atom 43 z ${z0}
set atom 43 z 6.35332054424286
  1 settings made for z
set atom $i y ${y0}
set atom 43 y ${y0}
set atom 43 y 6.47256147193909
  1 settings made for y
set atom ${layeri} z ${z0}
set atom 44 z ${z0}
set atom 44 z 6.35332054424286
  1 settings made for z
set atom ${layeri} y ${y0}
set atom 44 y ${y0}
set atom 44 y 6.47256147193909
  1 settings made for y
variable 	nmoves equal ${nmincrement}
variable 	nmoves equal 8
next            iter
jump            SELF loop

variable        i equal ${irandom}
variable        i equal 31

# 0 for even, take away one to get lower layer
# !=0 for odd, add one to get upper layer
if		"${atomid} == 0" then                   "variable layeri equal ${loweri} "                 else                   "variable layeri equal ${upperi} "
variable layeri equal ${upperi} 
variable layeri equal 32 
variable        z0 equal ${zi}
variable        z0 equal 6.47222472953796
variable        y0 equal ${yi}
variable        y0 equal 4.27494643878937

set             atom $i z ${znew}
set             atom 31 z ${znew}
set             atom 31 z 7.05787803459167
  1 settings made for z
set             atom $i y ${ynew}
set             atom 31 y ${ynew}
set             atom 31 y 4.92248760414124
  1 settings made for y
set             atom ${layeri} z ${znew}
set             atom 32 z ${znew}
set             atom 32 z 7.93955148983001
  1 settings made for z
set             atom ${layeri} y ${ynew}
set             atom 32 y ${ynew}
set             atom 32 y 4.2501362438202
  1 settings made for y

run             1 pre no post no
Step Temp E_pair E_mol TotEng Press 
       8            0   -1437.1652            0   -1437.1652   -51.132772 
       9            0   -1189.8329            0   -1189.8329    246.05664 
Loop time of 0.0395288 on 1 procs for 1 steps with 72 atoms

101.2% CPU use with 1 MPI tasks x 1 OpenMP threads

if              "$e <= ${elast}" then                   "variable elast equal $e"                   "variable naccept equal ${increment}"                 elif "${rn} <= ${boltzfactor}"                   "variable elast equal $e"                   "variable naccept equal ${increment}"                 else                   "set atom $i z ${z0}"                   "set atom $i y ${y0}"                   "set atom ${layeri} z ${z0}"                   "set atom ${layeri} y ${y0}"
set atom $i z ${z0}
set atom 31 z ${z0}
set atom 31 z 6.47222472953796
  1 settings made for z
set atom $i y ${y0}
set atom 31 y ${y0}
set atom 31 y 4.27494643878937
  1 settings made for y
set atom ${layeri} z ${z0}
set atom 32 z ${z0}
set atom 32 z 6.47222472953796
  1 settings made for z
set atom ${layeri} y ${y0}
set atom 32 y ${y0}
set atom 32 y 4.27494643878937
  1 settings made for y
variable 	nmoves equal ${nmincrement}
variable 	nmoves equal 9
next            iter
jump            SELF loop

variable        i equal ${irandom}
variable        i equal 16

# 0 for even, take away one to get lower layer
# !=0 for odd, add one to get upper layer
if		"${atomid} == 0" then                   "variable layeri equal ${loweri} "                 else                   "variable layeri equal ${upperi} "
variable layeri equal ${loweri} 
variable layeri equal 15 
variable        z0 equal ${zi}
variable        z0 equal 1.99347863769531
variable        y0 equal ${yi}
variable        y0 equal 2.18772826766968

set             atom $i z ${znew}
set             atom 16 z ${znew}
set             atom 16 z 2.45848332023621
  1 settings made for z
set             atom $i y ${ynew}
set             atom 16 y ${ynew}
set             atom 16 y 1.30217848396301
  1 settings made for y
set             atom ${layeri} z ${znew}
set             atom 15 z ${znew}
set             atom 15 z 2.03552816486359
  1 settings made for z
set             atom ${layeri} y ${ynew}
set             atom 15 y ${ynew}
set             atom 15 y 1.32635865783691
  1 settings made for y

run             1 pre no post no
Step Temp E_pair E_mol TotEng Press 
       9            0   -1189.8329            0   -1189.8329    246.05664 
      10            0   -1435.5781            0   -1435.5781  -0.54769556 
Loop time of 0.039829 on 1 procs for 1 steps with 72 atoms

110.5% CPU use with 1 MPI tasks x 1 OpenMP threads

if              "$e <= ${elast}" then                   "variable elast equal $e"                   "variable naccept equal ${increment}"                 elif "${rn} <= ${boltzfactor}"                   "variable elast equal $e"                   "variable naccept equal ${increment}"                 else                   "set atom $i z ${z0}"                   "set atom $i y ${y0}"                   "set atom ${layeri} z ${z0}"                   "set atom ${layeri} y ${y0}"
set atom $i z ${z0}
set atom 16 z ${z0}
set atom 16 z 1.99347863769531
  1 settings made for z
set atom $i y ${y0}
set atom 16 y ${y0}
set atom 16 y 2.18772826766968
  1 settings made for y
set atom ${layeri} z ${z0}
set atom 15 z ${z0}
set atom 15 z 1.99347863769531
  1 settings made for z
set atom ${layeri} y ${y0}
set atom 15 y ${y0}
set atom 15 y 2.18772826766968
  1 settings made for y
variable 	nmoves equal ${nmincrement}
variable 	nmoves equal 10
next            iter
jump            SELF loop

variable        i equal ${irandom}
variable        i equal 5

# 0 for even, take away one to get lower layer
# !=0 for odd, add one to get upper layer
if		"${atomid} == 0" then                   "variable layeri equal ${loweri} "                 else                   "variable layeri equal ${upperi} "
variable layeri equal ${upperi} 
variable layeri equal 6 
variable        z0 equal ${zi}
variable        z0 equal 4.07449892711639
variable        y0 equal ${yi}
variable        y0 equal -0.0747952461242676

set             atom $i z ${znew}
set             atom 5 z ${znew}
set             atom 5 z 4.84416691017151
  1 settings made for z
set             atom $i y ${ynew}
set             atom 5 y ${ynew}
set             atom 5 y -0.305652856826782
  1 settings made for y
set             atom ${layeri} z ${znew}
set             atom 6 z ${znew}
set             atom 6 z 4.75539711666107
  1 settings made for z
set             atom ${layeri} y ${ynew}
set             atom 6 y ${ynew}
set             atom 6 y 0.0492150783538821
  1 settings made for y

run             1 pre no post no
Step Temp E_pair E_mol TotEng Press 
      10            0   -1435.5781            0   -1435.5781  -0.54769556 
      11            0   -1440.4686            0   -1440.4686       -23.12 
Loop time of 0.039736 on 1 procs for 1 steps with 72 atoms

100.7% CPU use with 1 MPI tasks x 1 OpenMP threads

if              "$e <= ${elast}" then                   "variable elast equal $e"                   "variable naccept equal ${increment}"                 elif "${rn} <= ${boltzfactor}"                   "variable elast equal $e"                   "variable naccept equal ${increment}"                 else                   "set atom $i z ${z0}"                   "set atom $i y ${y0}"                   "set atom ${layeri} z ${z0}"                   "set atom ${layeri} y ${y0}"
set atom $i z ${z0}
set atom 5 z ${z0}
set atom 5 z 4.07449892711639
  1 settings made for z
set atom $i y ${y0}
set atom 5 y ${y0}
set atom 5 y -0.0747952461242676
  1 settings made for y
set atom ${layeri} z ${z0}
set atom 6 z ${z0}
set atom 6 z 4.07449892711639
  1 settings made for z
set atom ${layeri} y ${y0}
set atom 6 y ${y0}
set atom 6 y -0.0747952461242676
  1 settings made for y
variable 	nmoves equal ${nmincrement}
variable 	nmoves equal 11
next            iter
jump            SELF loop

variable        i equal ${irandom}
variable        i equal 54

# 0 for even, take away one to get lower layer
# !=0 for odd, add one to get upper layer
if		"${atomid} == 0" then                   "variable layeri equal ${loweri} "                 else                   "variable layeri equal ${upperi} "
variable layeri equal ${loweri} 
variable layeri equal 53 
variable        z0 equal ${zi}
variable        z0 equal 4.28256701183319
variable        y0 equal ${yi}
variable        y0 equal 8.62122669124603

set             atom $i z ${znew}
set             atom 54 z ${znew}
set             atom 54 z 4.69431649398804
  1 settings made for z
set             atom $i y ${ynew}
set             atom 54 y ${ynew}
set             atom 54 y 9.46640183830261
  1 settings made for y
set             atom ${layeri} z ${znew}
set             atom 53 z ${znew}
set             atom 53 z 5.56777607154847
  1 settings made for z
set             atom ${layeri} y ${ynew}
set             atom 53 y ${ynew}
set             atom 53 y 9.13519337081909
  1 settings made for y

run             1 pre no post no
Step Temp E_pair E_mol TotEng Press 
      11            0   -1440.4686            0   -1440.4686       -23.12 
      12            0   -1370.3757            0   -1370.3757    146.25105 
Loop time of 0.039777 on 1 procs for 1 steps with 72 atoms

100.6% CPU use with 1 MPI tasks x 1 OpenMP threads

if              "$e <= ${elast}" then                   "variable elast equal $e"                   "variable naccept equal ${increment}"                 elif "${rn} <= ${boltzfactor}"                   "variable elast equal $e"                   "variable naccept equal ${increment}"                 else                   "set atom $i z ${z0}"                   "set atom $i y ${y0}"                   "set atom ${layeri} z ${z0}"                   "set atom ${layeri} y ${y0}"
set atom $i z ${z0}
set atom 54 z ${z0}
set atom 54 z 4.28256701183319
  1 settings made for z
set atom $i y ${y0}
set atom 54 y ${y0}
set atom 54 y 8.62122669124603
  1 settings made for y
set atom ${layeri} z ${z0}
set atom 53 z ${z0}
set atom 53 z 4.28256701183319
  1 settings made for z
set atom ${layeri} y ${y0}
set atom 53 y ${y0}
set atom 53 y 8.62122669124603
  1 settings made for y
variable 	nmoves equal ${nmincrement}
variable 	nmoves equal 12
next            iter
jump            SELF loop

variable        i equal ${irandom}
variable        i equal 54

# 0 for even, take away one to get lower layer
# !=0 for odd, add one to get upper layer
if		"${atomid} == 0" then                   "variable layeri equal ${loweri} "                 else                   "variable layeri equal ${upperi} "
variable layeri equal ${loweri} 
variable layeri equal 53 
variable        z0 equal ${zi}
variable        z0 equal 4.28256701183319
variable        y0 equal ${yi}
variable        y0 equal 8.62122669124603

set             atom $i z ${znew}
set             atom 54 z ${znew}
set             atom 54 z 5.09108208370209
  1 settings made for z
set             atom $i y ${ynew}
set             atom 54 y ${ynew}
set             atom 54 y 7.96248021030426
  1 settings made for y
set             atom ${layeri} z ${znew}
set             atom 53 z ${znew}
set             atom 53 z 4.85890160751343
  1 settings made for z
set             atom ${layeri} y ${ynew}
set             atom 53 y ${ynew}
set             atom 53 y 7.58850397968292
  1 settings made for y

run             1 pre no post no
Step Temp E_pair E_mol TotEng Press 
      12            0   -1370.3757            0   -1370.3757    146.25105 
      13            0   -1429.7514            0   -1429.7514    4.0598603 
Loop time of 0.040108 on 1 procs for 1 steps with 72 atoms

99.7% CPU use with 1 MPI tasks x 1 OpenMP threads

if              "$e <= ${elast}" then                   "variable elast equal $e"                   "variable naccept equal ${increment}"                 elif "${rn} <= ${boltzfactor}"                   "variable elast equal $e"                   "variable naccept equal ${increment}"                 else                   "set atom $i z ${z0}"                   "set atom $i y ${y0}"                   "set atom ${layeri} z ${z0}"                   "set atom ${layeri} y ${y0}"
set atom $i z ${z0}
set atom 54 z ${z0}
set atom 54 z 4.28256701183319
  1 settings made for z
set atom $i y ${y0}
set atom 54 y ${y0}
set atom 54 y 8.62122669124603
  1 settings made for y
set atom ${layeri} z ${z0}
set atom 53 z ${z0}
set atom 53 z 4.28256701183319
  1 settings made for z
set atom ${layeri} y ${y0}
set atom 53 y ${y0}
set atom 53 y 8.62122669124603
  1 settings made for y
variable 	nmoves equal ${nmincrement}
variable 	nmoves equal 13
next            iter
jump            SELF loop

variable        i equal ${irandom}
variable        i equal 44

# 0 for even, take away one to get lower layer
# !=0 for odd, add one to get upper layer
if		"${atomid} == 0" then                   "variable layeri equal ${loweri} "                 else                   "variable layeri equal ${upperi} "
variable layeri equal ${loweri} 
variable layeri equal 43 
variable        z0 equal ${zi}
variable        z0 equal 6.35332054424286
variable        y0 equal ${yi}
variable        y0 equal 6.47256147193909

set             atom $i z ${znew}
set             atom 44 z ${znew}
set             atom 44 z 7.07167369651795
  1 settings made for z
set             atom $i y ${ynew}
set             atom 44 y ${ynew}
set             atom 44 y 5.6095846824646
  1 settings made for y
set             atom ${layeri} z ${znew}
set             atom 43 z ${znew}
set             atom 43 z 7.35908097553254
  1 settings made for z
set             atom ${layeri} y ${ynew}
set             atom 43 y ${ynew}
set             atom 43 y 4.84449981975555
  1 settings made for y

run             1 pre no post no
Step Temp E_pair E_mol TotEng Press 
      13            0   -1429.7514            0   -1429.7514    4.0598603 
      14            0   -1395.2972            0   -1395.2972     105.3927 
Loop time of 0.040216 on 1 procs for 1 steps with 72 atoms

99.5% CPU use with 1 MPI tasks x 1 OpenMP threads

if              "$e <= ${elast}" then                   "variable elast equal $e"                   "variable naccept equal ${increment}"                 elif "${rn} <= ${boltzfactor}"                   "variable elast equal $e"                   "variable naccept equal ${increment}"                 else                   "set atom $i z ${z0}"                   "set atom $i y ${y0}"                   "set atom ${layeri} z ${z0}"                   "set atom ${layeri} y ${y0}"
set atom $i z ${z0}
set atom 44 z ${z0}
set atom 44 z 6.35332054424286
  1 settings made for z
set atom $i y ${y0}
set atom 44 y ${y0}
set atom 44 y 6.47256147193909
  1 settings made for y
set atom ${layeri} z ${z0}
set atom 43 z ${z0}
set atom 43 z 6.35332054424286
  1 settings made for z
set atom ${layeri} y ${y0}
set atom 43 y ${y0}
set atom 43 y 6.47256147193909
  1 settings made for y
variable 	nmoves equal ${nmincrement}
variable 	nmoves equal 14
next            iter
jump            SELF loop

variable        i equal ${irandom}
variable        i equal 27

# 0 for even, take away one to get lower layer
# !=0 for odd, add one to get upper layer
if		"${atomid} == 0" then                   "variable layeri equal ${loweri} "                 else                   "variable layeri equal ${upperi} "
variable layeri equal ${upperi} 
variable layeri equal 28 
variable        z0 equal ${zi}
variable        z0 equal 2.23500791168213
variable        y0 equal ${yi}
variable        y0 equal 4.3609364862442

set             atom $i z ${znew}
set             atom 27 z ${znew}
set             atom 27 z 3.15466597652435
  1 settings made for z
set             atom $i y ${ynew}
set             atom 27 y ${ynew}
set             atom 27 y 3.80565568161011
  1 settings made for y
set             atom ${layeri} z ${znew}
set             atom 28 z ${znew}
set             atom 28 z 3.56330731487274
  1 settings made for z
set             atom ${layeri} y ${ynew}
set             atom 28 y ${ynew}
set             atom 28 y 3.71698971939087
  1 settings made for y

run             1 pre no post no
Step Temp E_pair E_mol TotEng Press 
      14            0   -1395.2972            0   -1395.2972     105.3927 
      15            0   -1387.3014            0   -1387.3014    121.59111 
Loop time of 0.0401189 on 1 procs for 1 steps with 72 atoms

99.7% CPU use with 1 MPI tasks x 1 OpenMP threads

if              "$e <= ${elast}" then                   "variable elast equal $e"                   "variable naccept equal ${increment}"                 elif "${rn} <= ${boltzfactor}"                   "variable elast equal $e"                   "variable naccept equal ${increment}"                 else                   "set atom $i z ${z0}"                   "set atom $i y ${y0}"                   "set atom ${layeri} z ${z0}"                   "set atom ${layeri} y ${y0}"
set atom $i z ${z0}
set atom 27 z ${z0}
set atom 27 z 2.23500791168213
  1 settings made for z
set atom $i y ${y0}
set atom 27 y ${y0}
set atom 27 y 4.3609364862442
  1 settings made for y
set atom ${layeri} z ${z0}
set atom 28 z ${z0}
set atom 28 z 2.23500791168213
  1 settings made for z
set atom ${layeri} y ${y0}
set atom 28 y ${y0}
set atom 28 y 4.3609364862442
  1 settings made for y
variable 	nmoves equal ${nmincrement}
variable 	nmoves equal 15
next            iter
jump            SELF loop

variable        i equal ${irandom}
variable        i equal 24

# 0 for even, take away one to get lower layer
# !=0 for odd, add one to get upper layer
if		"${atomid} == 0" then                   "variable layeri equal ${loweri} "                 else                   "variable layeri equal ${upperi} "
variable layeri equal ${loweri} 
variable layeri equal 23 
variable        z0 equal ${zi}
variable        z0 equal 10.5768063831329
variable        y0 equal ${yi}
variable        y0 equal 2.26690762615204

set             atom $i z ${znew}
set             atom 24 z ${znew}
set             atom 24 z 10.0638718175888
  1 settings made for z
set             atom $i y ${ynew}
set             atom 24 y ${ynew}
set             atom 24 y 1.91137509918213
  1 settings made for y
set             atom ${layeri} z ${znew}
set             atom 23 z ${znew}
set             atom 23 z 10.5818881559372
  1 settings made for z
set             atom ${layeri} y ${ynew}
set             atom 23 y ${ynew}
set             atom 23 y 1.988195353508
  1 settings made for y

run             1 pre no post no
Step Temp E_pair E_mol TotEng Press 
      15            0   -1387.3014            0   -1387.3014    121.59111 
      16            0     -1442.41            0     -1442.41       -37.99 
Loop time of 0.039603 on 1 procs for 1 steps with 72 atoms

111.1% CPU use with 1 MPI tasks x 1 OpenMP threads

if              "$e <= ${elast}" then                   "variable elast equal $e"                   "variable naccept equal ${increment}"                 elif "${rn} <= ${boltzfactor}"                   "variable elast equal $e"                   "variable naccept equal ${increment}"                 else                   "set atom $i z ${z0}"                   "set atom $i y ${y0}"                   "set atom ${layeri} z ${z0}"                   "set atom ${layeri} y ${y0}"
set atom $i z ${z0}
set atom 24 z ${z0}
set atom 24 z 10.5768063831329
  1 settings made for z
set atom $i y ${y0}
set atom 24 y ${y0}
set atom 24 y 2.26690762615204
  1 settings made for y
set atom ${layeri} z ${z0}
set atom 23 z ${z0}
set atom 23 z 10.5768063831329
  1 settings made for z
set atom ${layeri} y ${y0}
set atom 23 y ${y0}
set atom 23 y 2.26690762615204
  1 settings made for y
variable 	nmoves equal ${nmincrement}
variable 	nmoves equal 16
next            iter
jump            SELF loop

variable        i equal ${irandom}
variable        i equal 33

# 0 for even, take away one to get lower layer
# !=0 for odd, add one to get upper layer
if		"${atomid} == 0" then                   "variable layeri equal ${loweri} "                 else                   "variable layeri equal ${upperi} "
variable layeri equal ${upperi} 
variable layeri equal 34 
variable        z0 equal ${zi}
variable        z0 equal 8.33099121952057
variable        y0 equal ${yi}
variable        y0 equal 4.32470840167999

set             atom $i z ${znew}
set             atom 33 z ${znew}
set             atom 33 z 7.9956067314148
  1 settings made for z
set             atom $i y ${ynew}
set             atom 33 y ${ynew}
set             atom 33 y 5.069390832901
  1 settings made for y
set             atom ${layeri} z ${znew}
set             atom 34 z ${znew}
set             atom 34 z 8.15423257255555
  1 settings made for z
set             atom ${layeri} y ${ynew}
set             atom 34 y ${ynew}
set             atom 34 y 5.76789003562927
  1 settings made for y

run             1 pre no post no
Step Temp E_pair E_mol TotEng Press 
      16            0     -1442.41            0     -1442.41       -37.99 
      17            0   -1320.5882            0   -1320.5882    214.23321 
Loop time of 0.0398929 on 1 procs for 1 steps with 72 atoms

100.3% CPU use with 1 MPI tasks x 1 OpenMP threads

if              "$e <= ${elast}" then                   "variable elast equal $e"                   "variable naccept equal ${increment}"                 elif "${rn} <= ${boltzfactor}"                   "variable elast equal $e"                   "variable naccept equal ${increment}"                 else                   "set atom $i z ${z0}"                   "set atom $i y ${y0}"                   "set atom ${layeri} z ${z0}"                   "set atom ${layeri} y ${y0}"
set atom $i z ${z0}
set atom 33 z ${z0}
set atom 33 z 8.33099121952057
  1 settings made for z
set atom $i y ${y0}
set atom 33 y ${y0}
set atom 33 y 4.32470840167999
  1 settings made for y
set atom ${layeri} z ${z0}
set atom 34 z ${z0}
set atom 34 z 8.33099121952057
  1 settings made for z
set atom ${layeri} y ${y0}
set atom 34 y ${y0}
set atom 34 y 4.32470840167999
  1 settings made for y
variable 	nmoves equal ${nmincrement}
variable 	nmoves equal 17
next            iter
jump            SELF loop

variable        i equal ${irandom}
variable        i equal 48

# 0 for even, take away one to get lower layer
# !=0 for odd, add one to get upper layer
if		"${atomid} == 0" then                   "variable layeri equal ${loweri} "                 else                   "variable layeri equal ${upperi} "
variable layeri equal ${loweri} 
variable layeri equal 47 
variable        z0 equal ${zi}
variable        z0 equal 10.6378340291977
variable        y0 equal ${yi}
variable        y0 equal 6.13167180347443

set             atom $i z ${znew}
set             atom 48 z ${znew}
set             atom 48 z 10.0294515657425
  1 settings made for z
set             atom $i y ${ynew}
set             atom 48 y ${ynew}
set             atom 48 y 6.69521381187439
  1 settings made for y
set             atom ${layeri} z ${znew}
set             atom 47 z ${znew}
set             atom 47 z 10.545561747551
  1 settings made for z
set             atom ${layeri} y ${ynew}
set             atom 47 y ${ynew}
set             atom 47 y 6.2100413017273
  1 settings made for y

run             1 pre no post no
Step Temp E_pair E_mol TotEng Press 
      17            0   -1320.5882            0   -1320.5882    214.23321 
      18            0    -1444.913            0    -1444.913   -40.126103 
Loop time of 0.0400701 on 1 procs for 1 steps with 72 atoms

99.8% CPU use with 1 MPI tasks x 1 OpenMP threads

if              "$e <= ${elast}" then                   "variable elast equal $e"                   "variable naccept equal ${increment}"                 elif "${rn} <= ${boltzfactor}"                   "variable elast equal $e"                   "variable naccept equal ${increment}"                 else                   "set atom $i z ${z0}"                   "set atom $i y ${y0}"                   "set atom ${layeri} z ${z0}"                   "set atom ${layeri} y ${y0}"
variable elast equal $e
variable elast equal -1444.91299899675
variable naccept equal ${increment}
variable naccept equal 1
variable 	nmoves equal ${nmincrement}
variable 	nmoves equal 18
next            iter
jump            SELF loop

variable        i equal ${irandom}
variable        i equal 72

# 0 for even, take away one to get lower layer
# !=0 for odd, add one to get upper layer
if		"${atomid} == 0" then                   "variable layeri equal ${loweri} "                 else                   "variable layeri equal ${upperi} "
variable layeri equal ${loweri} 
variable layeri equal 71 
variable        z0 equal ${zi}
variable        z0 equal 10.7173218297958
variable        y0 equal ${yi}
variable        y0 equal 10.456537322998

set             atom $i z ${znew}
set             atom 72 z ${znew}
set             atom 72 z 10.4106897878647
  1 settings made for z
set             atom $i y ${ynew}
set             atom 72 y ${ynew}
set             atom 72 y 10.8027481603622
  1 settings made for y
set             atom ${layeri} z ${znew}
set             atom 71 z ${znew}
set             atom 71 z 10.019203619957
  1 settings made for z
set             atom ${layeri} y ${ynew}
set             atom 71 y ${ynew}
set             atom 71 y 10.2597875165939
  1 settings made for y

run             1 pre no post no
Step Temp E_pair E_mol TotEng Press 
      18            0    -1444.913            0    -1444.913   -40.126103 
      19            0   -1440.0987            0   -1440.0987   -11.717157 
Loop time of 0.0400369 on 1 procs for 1 steps with 72 atoms

99.9% CPU use with 1 MPI tasks x 1 OpenMP threads

if              "$e <= ${elast}" then                   "variable elast equal $e"                   "variable naccept equal ${increment}"                 elif "${rn} <= ${boltzfactor}"                   "variable elast equal $e"                   "variable naccept equal ${increment}"                 else                   "set atom $i z ${z0}"                   "set atom $i y ${y0}"                   "set atom ${layeri} z ${z0}"                   "set atom ${layeri} y ${y0}"
set atom $i z ${z0}
set atom 72 z ${z0}
set atom 72 z 10.7173218297958
  1 settings made for z
set atom $i y ${y0}
set atom 72 y ${y0}
set atom 72 y 10.456537322998
  1 settings made for y
set atom ${layeri} z ${z0}
set atom 71 z ${z0}
set atom 71 z 10.7173218297958
  1 settings made for z
set atom ${layeri} y ${y0}
set atom 71 y ${y0}
set atom 71 y 10.456537322998
  1 settings made for y
variable 	nmoves equal ${nmincrement}
variable 	nmoves equal 19
next            iter
jump            SELF loop

variable        i equal ${irandom}
variable        i equal 70

# 0 for even, take away one to get lower layer
# !=0 for odd, add one to get upper layer
if		"${atomid} == 0" then                   "variable layeri equal ${loweri} "                 else                   "variable layeri equal ${upperi} "
variable layeri equal ${loweri} 
variable layeri equal 69 
variable        z0 equal ${zi}
variable        z0 equal 8.59869191551208
variable        y0 equal ${yi}
variable        y0 equal 10.5421829271317

set             atom $i z ${znew}
set             atom 70 z ${znew}
set             atom 70 z 9.37149927520752
  1 settings made for z
set             atom $i y ${ynew}
set             atom 70 y ${ynew}
set             atom 70 y 10.7655805397034
  1 settings made for y
set             atom ${layeri} z ${znew}
set             atom 69 z ${znew}
set             atom 69 z 8.58864734077454
  1 settings made for z
set             atom ${layeri} y ${ynew}
set             atom 69 y ${ynew}
set             atom 69 y 11.1114147949219
  1 settings made for y

run             1 pre no post no
Step Temp E_pair E_mol TotEng Press 
      19            0   -1440.0987            0   -1440.0987   -11.717157 
      20            0   -1436.3805            0   -1436.3805    -24.41513 
Loop time of 0.0398951 on 1 procs for 1 steps with 72 atoms

100.3% CPU use with 1 MPI tasks x 1 OpenMP threads

if              "$e <= ${elast}" then                   "variable elast equal $e"                   "variable naccept equal ${increment}"                 elif "${rn} <= ${boltzfactor}"                   "variable elast equal $e"                   "variable naccept equal ${increment}"                 else                   "set atom $i z ${z0}"                   "set atom $i y ${y0}"                   "set atom ${layeri} z ${z0}"                   "set atom ${layeri} y ${y0}"
set atom $i z ${z0}
set atom 70 z ${z0}
set atom 70 z 8.59869191551208
  1 settings made for z
set atom $i y ${y0}
set atom 70 y ${y0}
set atom 70 y 10.5421829271317
  1 settings made for y
set atom ${layeri} z ${z0}
set atom 69 z ${z0}
set atom 69 z 8.59869191551208
  1 settings made for z
set atom ${layeri} y ${y0}
set atom 69 y ${y0}
set atom 69 y 10.5421829271317
  1 settings made for y
variable 	nmoves equal ${nmincrement}
variable 	nmoves equal 20
next            iter
jump            SELF loop

variable        i equal ${irandom}
variable        i equal 3

# 0 for even, take away one to get lower layer
# !=0 for odd, add one to get upper layer
if		"${atomid} == 0" then                   "variable layeri equal ${loweri} "                 else                   "variable layeri equal ${upperi} "
variable layeri equal ${upperi} 
variable layeri equal 4 
variable        z0 equal ${zi}
variable        z0 equal 1.93110604858398
variable        y0 equal ${yi}
variable        y0 equal -0.131749296188354

set             atom $i z ${znew}
set             atom 3 z ${znew}
set             atom 3 z 2.43202860927582
  1 settings made for z
set             atom $i y ${ynew}
set             atom 3 y ${ynew}
set             atom 3 y -0.495208764076233
  1 settings made for y
set             atom ${layeri} z ${znew}
set             atom 4 z ${znew}
set             atom 4 z 2.31964810466767
  1 settings made for z
set             atom ${layeri} y ${ynew}
set             atom 4 y ${ynew}
set             atom 4 y -0.0780036687850953
  1 settings made for y

run             1 pre no post no
Step Temp E_pair E_mol TotEng Press 
      20            0   -1436.3805            0   -1436.3805    -24.41513 
      21            0   -1443.1332            0   -1443.1332   -40.066789 
Loop time of 0.0398781 on 1 procs for 1 steps with 72 atoms

100.3% CPU use with 1 MPI tasks x 1 OpenMP threads

if              "$e <= ${elast}" then                   "variable elast equal $e"                   "variable naccept equal ${increment}"                 elif "${rn} <= ${boltzfactor}"                   "variable elast equal $e"                   "variable naccept equal ${increment}"                 else                   "set atom $i z ${z0}"                   "set atom $i y ${y0}"                   "set atom ${layeri} z ${z0}"                   "set atom ${layeri} y ${y0}"
set atom $i z ${z0}
set atom 3 z ${z0}
set atom 3 z 1.93110604858398
  1 settings made for z
set atom $i y ${y0}
set atom 3 y ${y0}
set atom 3 y -0.131749296188354
  1 settings made for y
set atom ${layeri} z ${z0}
set atom 4 z ${z0}
set atom 4 z 1.93110604858398
  1 settings made for z
set atom ${layeri} y ${y0}
set atom 4 y ${y0}
set atom 4 y -0.131749296188354
  1 settings made for y
variable 	nmoves equal ${nmincrement}
variable 	nmoves equal 21
next            iter
jump            SELF loop

variable        i equal ${irandom}
variable        i equal 72

# 0 for even, take away one to get lower layer
# !=0 for odd, add one to get upper layer
if		"${atomid} == 0" then                   "variable layeri equal ${loweri} "                 else                   "variable layeri equal ${upperi} "
variable layeri equal ${loweri} 
variable layeri equal 71 
variable        z0 equal ${zi}
variable        z0 equal 10.7173218297958
variable        y0 equal ${yi}
variable        y0 equal 10.456537322998

set             atom $i z ${znew}
set             atom 72 z ${znew}
set             atom 72 z 11.1532740163803
  1 settings made for z
set             atom $i y ${ynew}
set             atom 72 y ${ynew}
set             atom 72 y 10.2136369514465
  1 settings made for y
set             atom ${layeri} z ${znew}
set             atom 71 z ${znew}
set             atom 71 z 10.7741517591476
  1 settings made for z
set             atom ${layeri} y ${ynew}
set             atom 71 y ${ynew}
set             atom 71 y 10.7252935934066
  1 settings made for y

run             1 pre no post no
Step Temp E_pair E_mol TotEng Press 
      21            0   -1443.1332            0   -1443.1332   -40.066789 
      22            0   -1443.5256            0   -1443.5256   -53.833376 
Loop time of 0.040154 on 1 procs for 1 steps with 72 atoms

89.7% CPU use with 1 MPI tasks x 1 OpenMP threads

if              "$e <= ${elast}" then                   "variable elast equal $e"                   "variable naccept equal ${increment}"                 elif "${rn} <= ${boltzfactor}"                   "variable elast equal $e"                   "variable naccept equal ${increment}"                 else                   "set atom $i z ${z0}"                   "set atom $i y ${y0}"                   "set atom ${layeri} z ${z0}"                   "set atom ${layeri} y ${y0}"
set atom $i z ${z0}
set atom 72 z ${z0}
set atom 72 z 10.7173218297958
  1 settings made for z
set atom $i y ${y0}
set atom 72 y ${y0}
set atom 72 y 10.456537322998
  1 settings made for y
set atom ${layeri} z ${z0}
set atom 71 z ${z0}
set atom 71 z 10.7173218297958
  1 settings made for z
set atom ${layeri} y ${y0}
set atom 71 y ${y0}
set atom 71 y 10.456537322998
  1 settings made for y
variable 	nmoves equal ${nmincrement}
variable 	nmoves equal 22
next            iter
jump            SELF loop

variable        i equal ${irandom}
variable        i equal 16

# 0 for even, take away one to get lower layer
# !=0 for odd, add one to get upper layer
if		"${atomid} == 0" then                   "variable layeri equal ${loweri} "                 else                   "variable layeri equal ${upperi} "
variable layeri equal ${loweri} 
variable layeri equal 15 
variable        z0 equal ${zi}
variable        z0 equal 1.99347863769531
variable        y0 equal ${yi}
variable        y0 equal 2.18772826766968

set             atom $i z ${znew}
set             atom 16 z ${znew}
set             atom 16 z 2.88009510612488
  1 settings made for z
set             atom $i y ${ynew}
set             atom 16 y ${ynew}
set             atom 16 y 1.9343887386322
  1 settings made for y
set             atom ${layeri} z ${znew}
set             atom 15 z ${znew}
set             atom 15 z 3.47635684585571
  1 settings made for z
set             atom ${layeri} y ${ynew}
set             atom 15 y ${ynew}
set             atom 15 y 1.03919563865661
  1 settings made for y

run             1 pre no post no
Step Temp E_pair E_mol TotEng Press 
      22            0   -1443.5256            0   -1443.5256   -53.833376 
      23            0   -1409.2684            0   -1409.2684     57.57241 
Loop time of 0.040271 on 1 procs for 1 steps with 72 atoms

99.3% CPU use with 1 MPI tasks x 1 OpenMP threads

if              "$e <= ${elast}" then                   "variable elast equal $e"                   "variable naccept equal ${increment}"                 elif "${rn} <= ${boltzfactor}"                   "variable elast equal $e"                   "variable naccept equal ${increment}"                 else                   "set atom $i z ${z0}"                   "set atom $i y ${y0}"                   "set atom ${layeri} z ${z0}"                   "set atom ${layeri} y ${y0}"
set atom $i z ${z0}
set atom 16 z ${z0}
set atom 16 z 1.99347863769531
  1 settings made for z
set atom $i y ${y0}
set atom 16 y ${y0}
set atom 16 y 2.18772826766968
  1 settings made for y
set atom ${layeri} z ${z0}
set atom 15 z ${z0}
set atom 15 z 1.99347863769531
  1 settings made for z
set atom ${layeri} y ${y0}
set atom 15 y ${y0}
set atom 15 y 2.18772826766968
  1 settings made for y
variable 	nmoves equal ${nmincrement}
variable 	nmoves equal 23
next            iter
jump            SELF loop

variable        i equal ${irandom}
variable        i equal 9

# 0 for even, take away one to get lower layer
# !=0 for odd, add one to get upper layer
if		"${atomid} == 0" then                   "variable layeri equal ${loweri} "                 else                   "variable layeri equal ${upperi} "
variable layeri equal ${upperi} 
variable layeri equal 10 
variable        z0 equal ${zi}
variable        z0 equal 8.42900972270965
variable        y0 equal ${yi}
variable        y0 equal -0.172595357894897

set             atom $i z ${znew}
set             atom 9 z ${znew}
set             atom 9 z 8.27604584598541
  1 settings made for z
set             atom $i y ${ynew}
set             atom 9 y ${ynew}
set             atom 9 y 0.501572275161743
  1 settings made for y
set             atom ${layeri} z ${znew}
set             atom 10 z ${znew}
set             atom 10 z 8.68176929855346
  1 settings made for z
set             atom ${layeri} y ${ynew}
set             atom 10 y ${ynew}
set             atom 10 y 0.562486910820007
  1 settings made for y

run             1 pre no post no
Step Temp E_pair E_mol TotEng Press 
      23            0   -1409.2684            0   -1409.2684     57.57241 
      24            0   -1442.1624            0   -1442.1624   -8.0502763 
Loop time of 0.040447 on 1 procs for 1 steps with 72 atoms

98.9% CPU use with 1 MPI tasks x 1 OpenMP threads

if              "$e <= ${elast}" then                   "variable elast equal $e"                   "variable naccept equal ${increment}"                 elif "${rn} <= ${boltzfactor}"                   "variable elast equal $e"                   "variable naccept equal ${increment}"                 else                   "set atom $i z ${z0}"                   "set atom $i y ${y0}"                   "set atom ${layeri} z ${z0}"                   "set atom ${layeri} y ${y0}"
set atom $i z ${z0}
set atom 9 z ${z0}
set atom 9 z 8.42900972270965
  1 settings made for z
set atom $i y ${y0}
set atom 9 y ${y0}
set atom 9 y -0.172595357894897
  1 settings made for y
set atom ${layeri} z ${z0}
set atom 10 z ${z0}
set atom 10 z 8.42900972270965
  1 settings made for z
set atom ${layeri} y ${y0}
set atom 10 y ${y0}
set atom 10 y -0.172595357894897
  1 settings made for y
variable 	nmoves equal ${nmincrement}
variable 	nmoves equal 24
next            iter
jump            SELF loop

variable        i equal ${irandom}
variable        i equal 23

# 0 for even, take away one to get lower layer
# !=0 for odd, add one to get upper layer
if		"${atomid} == 0" then                   "variable layeri equal ${loweri} "                 else                   "variable layeri equal ${upperi} "
variable layeri equal ${upperi} 
variable layeri equal 24 
variable        z0 equal ${zi}
variable        z0 equal 10.5768063831329
variable        y0 equal ${yi}
variable        y0 equal 2.26690762615204

set             atom $i z ${znew}
set             atom 23 z ${znew}
set             atom 23 z 10.2336611318588
  1 settings made for z
set             atom $i y ${ynew}
set             atom 23 y ${ynew}
set             atom 23 y 1.50231497859955
  1 settings made for y
set             atom ${layeri} z ${znew}
set             atom 24 z ${znew}
set             atom 24 z 10.2749580907821
  1 settings made for z
set             atom ${layeri} y ${ynew}
set             atom 24 y ${ynew}
set             atom 24 y 0.689171606063844
  1 settings made for y

run             1 pre no post no
Step Temp E_pair E_mol TotEng Press 
      24            0   -1442.1624            0   -1442.1624   -8.0502763 
      25            0    -1332.124            0    -1332.124    173.62931 
Loop time of 0.040009 on 1 procs for 1 steps with 72 atoms

100.0% CPU use with 1 MPI tasks x 1 OpenMP threads

if              "$e <= ${elast}" then                   "variable elast equal $e"                   "variable naccept equal ${increment}"                 elif "${rn} <= ${boltzfactor}"                   "variable elast equal $e"                   "variable naccept equal ${increment}"                 else                   "set atom $i z ${z0}"                   "set atom $i y ${y0}"                   "set atom ${layeri} z ${z0}"                   "set atom ${layeri} y ${y0}"
set atom $i z ${z0}
set atom 23 z ${z0}
set atom 23 z 10.5768063831329
  1 settings made for z
set atom $i y ${y0}
set atom 23 y ${y0}
set atom 23 y 2.26690762615204
  1 settings made for y
set atom ${layeri} z ${z0}
set atom 24 z ${z0}
set atom 24 z 10.5768063831329
  1 settings made for z
set atom ${layeri} y ${y0}
set atom 24 y ${y0}
set atom 24 y 2.26690762615204
  1 settings made for y
variable 	nmoves equal ${nmincrement}
variable 	nmoves equal 25
next            iter
jump            SELF loop

variable        i equal ${irandom}
variable        i equal 9

# 0 for even, take away one to get lower layer
# !=0 for odd, add one to get upper layer
if		"${atomid} == 0" then                   "variable layeri equal ${loweri} "                 else                   "variable layeri equal ${upperi} "
variable layeri equal ${upperi} 
variable layeri equal 10 
variable        z0 equal ${zi}
variable        z0 equal 8.42900972270965
variable        y0 equal ${yi}
variable        y0 equal -0.172595357894897

set             atom $i z ${znew}
set             atom 9 z ${znew}
set             atom 9 z 8.48553256893157
  1 settings made for z
set             atom $i y ${ynew}
set             atom 9 y ${ynew}
set             atom 9 y -0.610486841201782
  1 settings made for y
set             atom ${layeri} z ${znew}
set             atom 10 z ${znew}
set             atom 10 z 7.7566333284378
  1 settings made for z
set             atom ${layeri} y ${ynew}
set             atom 10 y ${ynew}
set             atom 10 y -1.21003828048706
  1 settings made for y

run             1 pre no post no
Step Temp E_pair E_mol TotEng Press 
      25            0    -1332.124            0    -1332.124    173.62931 
      26            0   -1439.4462            0   -1439.4462   -59.033611 
Loop time of 0.039999 on 1 procs for 1 steps with 72 atoms

100.0% CPU use with 1 MPI tasks x 1 OpenMP threads

if              "$e <= ${elast}" then                   "variable elast equal $e"                   "variable naccept equal ${increment}"                 elif "${rn} <= ${boltzfactor}"                   "variable elast equal $e"                   "variable naccept equal ${increment}"                 else                   "set atom $i z ${z0}"                   "set atom $i y ${y0}"                   "set atom ${layeri} z ${z0}"                   "set atom ${layeri} y ${y0}"
set atom $i z ${z0}
set atom 9 z ${z0}
set atom 9 z 8.42900972270965
  1 settings made for z
set atom $i y ${y0}
set atom 9 y ${y0}
set atom 9 y -0.172595357894897
  1 settings made for y
set atom ${layeri} z ${z0}
set atom 10 z ${z0}
set atom 10 z 8.42900972270965
  1 settings made for z
set atom ${layeri} y ${y0}
set atom 10 y ${y0}
set atom 10 y -0.172595357894897
  1 settings made for y
variable 	nmoves equal ${nmincrement}
variable 	nmoves equal 26
next            iter
jump            SELF loop

variable        i equal ${irandom}
variable        i equal 63

# 0 for even, take away one to get lower layer
# !=0 for odd, add one to get upper layer
if		"${atomid} == 0" then                   "variable layeri equal ${loweri} "                 else                   "variable layeri equal ${upperi} "
variable layeri equal ${upperi} 
variable layeri equal 64 
variable        z0 equal ${zi}
variable        z0 equal 2.08824604129791
variable        y0 equal ${yi}
variable        y0 equal 10.3509613800049

set             atom $i z ${znew}
set             atom 63 z ${znew}
set             atom 63 z 1.58445184803009
  1 settings made for z
set             atom $i y ${ynew}
set             atom 63 y ${ynew}
set             atom 63 y 11.2679209041596
  1 settings made for y
set             atom ${layeri} z ${znew}
set             atom 64 z ${znew}
set             atom 64 z 0.717238837242126
  1 settings made for z
set             atom ${layeri} y ${ynew}
set             atom 64 y ${ynew}
set             atom 64 y 10.8628300952912
  1 settings made for y

run             1 pre no post no
Step Temp E_pair E_mol TotEng Press 
      26            0   -1439.4462            0   -1439.4462   -59.033611 
      27            0   -1353.0045            0   -1353.0045      127.677 
Loop time of 0.040324 on 1 procs for 1 steps with 72 atoms

99.2% CPU use with 1 MPI tasks x 1 OpenMP threads

if              "$e <= ${elast}" then                   "variable elast equal $e"                   "variable naccept equal ${increment}"                 elif "${rn} <= ${boltzfactor}"                   "variable elast equal $e"                   "variable naccept equal ${increment}"                 else                   "set atom $i z ${z0}"                   "set atom $i y ${y0}"                   "set atom ${layeri} z ${z0}"                   "set atom ${layeri} y ${y0}"
set atom $i z ${z0}
set atom 63 z ${z0}
set atom 63 z 2.08824604129791
  1 settings made for z
set atom $i y ${y0}
set atom 63 y ${y0}
set atom 63 y 10.3509613800049
  1 settings made for y
set atom ${layeri} z ${z0}
set atom 64 z ${z0}
set atom 64 z 2.08824604129791
  1 settings made for z
set atom ${layeri} y ${y0}
set atom 64 y ${y0}
set atom 64 y 10.3509613800049
  1 settings made for y
variable 	nmoves equal ${nmincrement}
variable 	nmoves equal 27
next            iter
jump            SELF loop

variable        i equal ${irandom}
variable        i equal 66

# 0 for even, take away one to get lower layer
# !=0 for odd, add one to get upper layer
if		"${atomid} == 0" then                   "variable layeri equal ${loweri} "                 else                   "variable layeri equal ${upperi} "
variable layeri equal ${loweri} 
variable layeri equal 65 
variable        z0 equal ${zi}
variable        z0 equal 4.24367130947113
variable        y0 equal ${yi}
variable        y0 equal 10.3786857175827

set             atom $i z ${znew}
set             atom 66 z ${znew}
set             atom 66 z 4.88948906612396
  1 settings made for z
set             atom $i y ${ynew}
set             atom 66 y ${ynew}
set             atom 66 y 10.1231629896164
  1 settings made for y
set             atom ${layeri} z ${znew}
set             atom 65 z ${znew}
set             atom 65 z 4.69533218097687
  1 settings made for z
set             atom ${layeri} y ${ynew}
set             atom 65 y ${ynew}
set             atom 65 y 9.81823909759522
  1 settings made for y

run             1 pre no post no
Step Temp E_pair E_mol TotEng Press 
      27            0   -1353.0045            0   -1353.0045      127.677 
      28            0   -1432.3041            0   -1432.3041     25.88341 
Loop time of 0.0401731 on 1 procs for 1 steps with 72 atoms

99.6% CPU use with 1 MPI tasks x 1 OpenMP threads

if              "$e <= ${elast}" then                   "variable elast equal $e"                   "variable naccept equal ${increment}"                 elif "${rn} <= ${boltzfactor}"                   "variable elast equal $e"                   "variable naccept equal ${increment}"                 else                   "set atom $i z ${z0}"                   "set atom $i y ${y0}"                   "set atom ${layeri} z ${z0}"                   "set atom ${layeri} y ${y0}"
set atom $i z ${z0}
set atom 66 z ${z0}
set atom 66 z 4.24367130947113
  1 settings made for z
set atom $i y ${y0}
set atom 66 y ${y0}
set atom 66 y 10.3786857175827
  1 settings made for y
set atom ${layeri} z ${z0}
set atom 65 z ${z0}
set atom 65 z 4.24367130947113
  1 settings made for z
set atom ${layeri} y ${y0}
set atom 65 y ${y0}
set atom 65 y 10.3786857175827
  1 settings made for y
variable 	nmoves equal ${nmincrement}
variable 	nmoves equal 28
next            iter
jump            SELF loop

variable        i equal ${irandom}
variable        i equal 59

# 0 for even, take away one to get lower layer
# !=0 for odd, add one to get upper layer
if		"${atomid} == 0" then                   "variable layeri equal ${loweri} "                 else                   "variable layeri equal ${upperi} "
variable layeri equal ${upperi} 
variable layeri equal 60 
variable        z0 equal ${zi}
variable        z0 equal 10.5348360347748
variable        y0 equal ${yi}
variable        y0 equal 8.55355021858215

set             atom $i z ${znew}
set             atom 59 z ${znew}
set             atom 59 z 10.8405542182922
  1 settings made for z
set             atom $i y ${ynew}
set             atom 59 y ${ynew}
set             atom 59 y 8.69906804466248
  1 settings made for y
set             atom ${layeri} z ${znew}
set             atom 60 z ${znew}
set             atom 60 z 10.7044893312454
  1 settings made for z
set             atom ${layeri} y ${ynew}
set             atom 60 y ${ynew}
set             atom 60 y 9.40460023784638
  1 settings made for y

run             1 pre no post no
Step Temp E_pair E_mol TotEng Press 
      28            0   -1432.3041            0   -1432.3041     25.88341 
      29            0   -1422.5606            0   -1422.5606    25.768557 
Loop time of 0.0398638 on 1 procs for 1 steps with 72 atoms

100.3% CPU use with 1 MPI tasks x 1 OpenMP threads

if              "$e <= ${elast}" then                   "variable elast equal $e"                   "variable naccept equal ${increment}"                 elif "${rn} <= ${boltzfactor}"                   "variable elast equal $e"                   "variable naccept equal ${increment}"                 else                   "set atom $i z ${z0}"                   "set atom $i y ${y0}"                   "set atom ${layeri} z ${z0}"                   "set atom ${layeri} y ${y0}"
set atom $i z ${z0}
set atom 59 z ${z0}
set atom 59 z 10.5348360347748
  1 settings made for z
set atom $i y ${y0}
set atom 59 y ${y0}
set atom 59 y 8.55355021858215
  1 settings made for y
set atom ${layeri} z ${z0}
set atom 60 z ${z0}
set atom 60 z 10.5348360347748
  1 settings made for z
set atom ${layeri} y ${y0}
set atom 60 y ${y0}
set atom 60 y 8.55355021858215
  1 settings made for y
variable 	nmoves equal ${nmincrement}
variable 	nmoves equal 29
next            iter
jump            SELF loop

variable        i equal ${irandom}
variable        i equal 46

# 0 for even, take away one to get lower layer
# !=0 for odd, add one to get upper layer
if		"${atomid} == 0" then                   "variable layeri equal ${loweri} "                 else                   "variable layeri equal ${upperi} "
variable layeri equal ${loweri} 
variable layeri equal 45 
variable        z0 equal ${zi}
variable        z0 equal 8.27330927753448
variable        y0 equal ${yi}
variable        y0 equal 6.3871668510437

set             atom $i z ${znew}
set             atom 46 z ${znew}
set             atom 46 z 7.75648646259308
  1 settings made for z
set             atom $i y ${ynew}
set             atom 46 y ${ynew}
set             atom 46 y 5.80132769870758
  1 settings made for y
set             atom ${layeri} z ${znew}
set             atom 45 z ${znew}
set             atom 45 z 8.61580006980896
  1 settings made for z
set             atom ${layeri} y ${ynew}
set             atom 45 y ${ynew}
set             atom 45 y 5.96760904121399
  1 settings made for y

run             1 pre no post no
Step Temp E_pair E_mol TotEng Press 
      29            0   -1422.5606            0   -1422.5606    25.768557 
      30            0   -1436.3943            0   -1436.3943    -21.11032 
Loop time of 0.039557 on 1 procs for 1 steps with 72 atoms

101.1% CPU use with 1 MPI tasks x 1 OpenMP threads

if              "$e <= ${elast}" then                   "variable elast equal $e"                   "variable naccept equal ${increment}"                 elif "${rn} <= ${boltzfactor}"                   "variable elast equal $e"                   "variable naccept equal ${increment}"                 else                   "set atom $i z ${z0}"                   "set atom $i y ${y0}"                   "set atom ${layeri} z ${z0}"                   "set atom ${layeri} y ${y0}"
set atom $i z ${z0}
set atom 46 z ${z0}
set atom 46 z 8.27330927753448
  1 settings made for z
set atom $i y ${y0}
set atom 46 y ${y0}
set atom 46 y 6.3871668510437
  1 settings made for y
set atom ${layeri} z ${z0}
set atom 45 z ${z0}
set atom 45 z 8.27330927753448
  1 settings made for z
set atom ${layeri} y ${y0}
set atom 45 y ${y0}
set atom 45 y 6.3871668510437
  1 settings made for y
variable 	nmoves equal ${nmincrement}
variable 	nmoves equal 30
next            iter
jump            SELF loop

variable        i equal ${irandom}
variable        i equal 26

# 0 for even, take away one to get lower layer
# !=0 for odd, add one to get upper layer
if		"${atomid} == 0" then                   "variable layeri equal ${loweri} "                 else                   "variable layeri equal ${upperi} "
variable layeri equal ${loweri} 
variable layeri equal 25 
variable        z0 equal ${zi}
variable        z0 equal 0.082747745513916
variable        y0 equal ${yi}
variable        y0 equal 4.14492310237885

set             atom $i z ${znew}
set             atom 26 z ${znew}
set             atom 26 z 0.75574951171875
  1 settings made for z
set             atom $i y ${ynew}
set             atom 26 y ${ynew}
set             atom 26 y 3.34516073417664
  1 settings made for y
set             atom ${layeri} z ${znew}
set             atom 25 z ${znew}
set             atom 25 z 1.67629592418671
  1 settings made for z
set             atom ${layeri} y ${ynew}
set             atom 25 y ${ynew}
set             atom 25 y 2.89426804733277
  1 settings made for y

run             1 pre no post no
Step Temp E_pair E_mol TotEng Press 
      30            0   -1436.3943            0   -1436.3943    -21.11032 
      31            0   -1390.9744            0   -1390.9744     56.97656 
Loop time of 0.0401299 on 1 procs for 1 steps with 72 atoms

99.7% CPU use with 1 MPI tasks x 1 OpenMP threads

[...]
set atom $i z ${z0}
set atom 22 z ${z0}
set atom 22 z 8.45496513748169
  1 settings made for z
set atom $i y ${y0}
set atom 22 y ${y0}
set atom 22 y 2.03489349460602
  1 settings made for y
set atom ${layeri} z ${z0}
set atom 21 z ${z0}
set atom 21 z 8.45496513748169
  1 settings made for z
set atom ${layeri} y ${y0}
set atom 21 y ${y0}
set atom 21 y 2.03489349460602
  1 settings made for y
variable 	nmoves equal ${nmincrement}
variable 	nmoves equal 93
next            iter
jump            SELF loop

variable        i equal ${irandom}
variable        i equal 36

# 0 for even, take away one to get lower layer
# !=0 for odd, add one to get upper layer
if		"${atomid} == 0" then                   "variable layeri equal ${loweri} "                 else                   "variable layeri equal ${upperi} "
variable layeri equal ${loweri} 
variable layeri equal 35 
variable        z0 equal ${zi}
variable        z0 equal 10.4223955440521
variable        y0 equal ${yi}
variable        y0 equal 4.11496549797058

set             atom $i z ${znew}
set             atom 36 z ${znew}
set             atom 36 z 9.53260012149808
  1 settings made for z
set             atom $i y ${ynew}
set             atom 36 y ${ynew}
set             atom 36 y 4.48140221786499
  1 settings made for y
set             atom ${layeri} z ${znew}
set             atom 35 z ${znew}
set             atom 35 z 9.97813554286954
  1 settings made for z
set             atom ${layeri} y ${ynew}
set             atom 35 y ${ynew}
set             atom 35 y 4.42138296318054
  1 settings made for y

run             1 pre no post no
Step Temp E_pair E_mol TotEng Press 
      93            0    -1423.677            0    -1423.677    63.098507 
      94            0   -1436.0494            0   -1436.0494    20.578557 
Loop time of 0.0401292 on 1 procs for 1 steps with 72 atoms

99.7% CPU use with 1 MPI tasks x 1 OpenMP threads

if              "$e <= ${elast}" then                   "variable elast equal $e"                   "variable naccept equal ${increment}"                 elif "${rn} <= ${boltzfactor}"                   "variable elast equal $e"                   "variable naccept equal ${increment}"                 else                   "set atom $i z ${z0}"                   "set atom $i y ${y0}"                   "set atom ${layeri} z ${z0}"                   "set atom ${layeri} y ${y0}"
set atom $i z ${z0}
set atom 36 z ${z0}
set atom 36 z 10.4223955440521
  1 settings made for z
set atom $i y ${y0}
set atom 36 y ${y0}
set atom 36 y 4.11496549797058
  1 settings made for y
set atom ${layeri} z ${z0}
set atom 35 z ${z0}
set atom 35 z 10.4223955440521
  1 settings made for z
set atom ${layeri} y ${y0}
set atom 35 y ${y0}
set atom 35 y 4.11496549797058
  1 settings made for y
variable 	nmoves equal ${nmincrement}
variable 	nmoves equal 94
next            iter
jump            SELF loop

variable        i equal ${irandom}
variable        i equal 70

# 0 for even, take away one to get lower layer
# !=0 for odd, add one to get upper layer
if		"${atomid} == 0" then                   "variable layeri equal ${loweri} "                 else                   "variable layeri equal ${upperi} "
variable layeri equal ${loweri} 
variable layeri equal 69 
variable        z0 equal ${zi}
variable        z0 equal 8.59869191551208
variable        y0 equal ${yi}
variable        y0 equal 10.5421829271317

set             atom $i z ${znew}
set             atom 70 z ${znew}
set             atom 70 z 8.31142578029632
  1 settings made for z
set             atom $i y ${ynew}
set             atom 70 y ${ynew}
set             atom 70 y 10.808674697876
  1 settings made for y
set             atom ${layeri} z ${znew}
set             atom 69 z ${znew}
set             atom 69 z 7.8528249015808
  1 settings made for z
set             atom ${layeri} y ${ynew}
set             atom 69 y ${ynew}
set             atom 69 y 10.1859225082398
  1 settings made for y

run             1 pre no post no
Step Temp E_pair E_mol TotEng Press 
      94            0   -1436.0494            0   -1436.0494    20.578557 
      95            0   -1443.6663            0   -1443.6663   -11.213403 
Loop time of 0.0392401 on 1 procs for 1 steps with 72 atoms

91.7% CPU use with 1 MPI tasks x 1 OpenMP threads

if              "$e <= ${elast}" then                   "variable elast equal $e"                   "variable naccept equal ${increment}"                 elif "${rn} <= ${boltzfactor}"                   "variable elast equal $e"                   "variable naccept equal ${increment}"                 else                   "set atom $i z ${z0}"                   "set atom $i y ${y0}"                   "set atom ${layeri} z ${z0}"                   "set atom ${layeri} y ${y0}"
set atom $i z ${z0}
set atom 70 z ${z0}
set atom 70 z 8.59869191551208
  1 settings made for z
set atom $i y ${y0}
set atom 70 y ${y0}
set atom 70 y 10.5421829271317
  1 settings made for y
set atom ${layeri} z ${z0}
set atom 69 z ${z0}
set atom 69 z 8.59869191551208
  1 settings made for z
set atom ${layeri} y ${y0}
set atom 69 y ${y0}
set atom 69 y 10.5421829271317
  1 settings made for y
variable 	nmoves equal ${nmincrement}
variable 	nmoves equal 95
next            iter
jump            SELF loop

variable        i equal ${irandom}
variable        i equal 27

# 0 for even, take away one to get lower layer
# !=0 for odd, add one to get upper layer
if		"${atomid} == 0" then                   "variable layeri equal ${loweri} "                 else                   "variable layeri equal ${upperi} "
variable layeri equal ${upperi} 
variable layeri equal 28 
variable        z0 equal ${zi}
variable        z0 equal 2.23500791168213
variable        y0 equal ${yi}
variable        y0 equal 4.3609364862442

set             atom $i z ${znew}
set             atom 27 z ${znew}
set             atom 27 z 2.40937736606598
  1 settings made for z
set             atom $i y ${ynew}
set             atom 27 y ${ynew}
set             atom 27 y 3.66259988498688
  1 settings made for y
set             atom ${layeri} z ${znew}
set             atom 28 z ${znew}
set             atom 28 z 1.48955538845062
  1 settings made for z
set             atom ${layeri} y ${ynew}
set             atom 28 y ${ynew}
set             atom 28 y 3.6020779247284
  1 settings made for y

run             1 pre no post no
Step Temp E_pair E_mol TotEng Press 
      95            0   -1443.6663            0   -1443.6663   -11.213403 
      96            0   -1436.9277            0   -1436.9277    9.2988907 
Loop time of 0.040004 on 1 procs for 1 steps with 72 atoms

100.0% CPU use with 1 MPI tasks x 1 OpenMP threads

if              "$e <= ${elast}" then                   "variable elast equal $e"                   "variable naccept equal ${increment}"                 elif "${rn} <= ${boltzfactor}"                   "variable elast equal $e"                   "variable naccept equal ${increment}"                 else                   "set atom $i z ${z0}"                   "set atom $i y ${y0}"                   "set atom ${layeri} z ${z0}"                   "set atom ${layeri} y ${y0}"
set atom $i z ${z0}
set atom 27 z ${z0}
set atom 27 z 2.23500791168213
  1 settings made for z
set atom $i y ${y0}
set atom 27 y ${y0}
set atom 27 y 4.3609364862442
  1 settings made for y
set atom ${layeri} z ${z0}
set atom 28 z ${z0}
set atom 28 z 2.23500791168213
  1 settings made for z
set atom ${layeri} y ${y0}
set atom 28 y ${y0}
set atom 28 y 4.3609364862442
  1 settings made for y
variable 	nmoves equal ${nmincrement}
variable 	nmoves equal 96
next            iter
jump            SELF loop

variable        i equal ${irandom}
variable        i equal 50

# 0 for even, take away one to get lower layer
# !=0 for odd, add one to get upper layer
if		"${atomid} == 0" then                   "variable layeri equal ${loweri} "                 else                   "variable layeri equal ${upperi} "
variable layeri equal ${loweri} 
variable layeri equal 49 
variable        z0 equal ${zi}
variable        z0 equal -0.858303046226502
variable        y0 equal ${yi}
variable        y0 equal 8.50073099040985

set             atom $i z ${znew}
set             atom 50 z ${znew}
set             atom 50 z -1.75025353431702
  1 settings made for z
set             atom $i y ${ynew}
set             atom 50 y ${ynew}
set             atom 50 y 9.38849174880981
  1 settings made for y
set             atom ${layeri} z ${znew}
set             atom 49 z ${znew}
set             atom 49 z -1.29728493690491
  1 settings made for z
set             atom ${layeri} y ${ynew}
set             atom 49 y ${ynew}
set             atom 49 y 8.51790273094177
  1 settings made for y

run             1 pre no post no
Step Temp E_pair E_mol TotEng Press 
      96            0   -1436.9277            0   -1436.9277    9.2988907 
      97            0   -1442.8235            0   -1442.8235   -46.727235 
Loop time of 0.0397 on 1 procs for 1 steps with 72 atoms

100.8% CPU use with 1 MPI tasks x 1 OpenMP threads

if              "$e <= ${elast}" then                   "variable elast equal $e"                   "variable naccept equal ${increment}"                 elif "${rn} <= ${boltzfactor}"                   "variable elast equal $e"                   "variable naccept equal ${increment}"                 else                   "set atom $i z ${z0}"                   "set atom $i y ${y0}"                   "set atom ${layeri} z ${z0}"                   "set atom ${layeri} y ${y0}"
set atom $i z ${z0}
set atom 50 z ${z0}
set atom 50 z -0.858303046226502
  1 settings made for z
set atom $i y ${y0}
set atom 50 y ${y0}
set atom 50 y 8.50073099040985
  1 settings made for y
set atom ${layeri} z ${z0}
set atom 49 z ${z0}
set atom 49 z -0.858303046226502
  1 settings made for z
set atom ${layeri} y ${y0}
set atom 49 y ${y0}
set atom 49 y 8.50073099040985
  1 settings made for y
variable 	nmoves equal ${nmincrement}
variable 	nmoves equal 97
next            iter
jump            SELF loop

variable        i equal ${irandom}
variable        i equal 48

# 0 for even, take away one to get lower layer
# !=0 for odd, add one to get upper layer
if		"${atomid} == 0" then                   "variable layeri equal ${loweri} "                 else                   "variable layeri equal ${upperi} "
variable layeri equal ${loweri} 
variable layeri equal 47 
variable        z0 equal ${zi}
variable        z0 equal 10.0294515657425
variable        y0 equal ${yi}
variable        y0 equal 6.69521381187439

set             atom $i z ${znew}
set             atom 48 z ${znew}
set             atom 48 z 9.11363680839539
  1 settings made for z
set             atom $i y ${ynew}
set             atom 48 y ${ynew}
set             atom 48 y 6.02380611228943
  1 settings made for y
set             atom ${layeri} z ${znew}
set             atom 47 z ${znew}
set             atom 47 z 8.36345000743866
  1 settings made for z
set             atom ${layeri} y ${ynew}
set             atom 47 y ${ynew}
set             atom 47 y 6.38487602996826
  1 settings made for y

run             1 pre no post no
Step Temp E_pair E_mol TotEng Press 
      97            0   -1442.8235            0   -1442.8235   -46.727235 
      98            0   -1043.7059            0   -1043.7059   -179.52771 
Loop time of 0.0403399 on 1 procs for 1 steps with 72 atoms

99.2% CPU use with 1 MPI tasks x 1 OpenMP threads

if              "$e <= ${elast}" then                   "variable elast equal $e"                   "variable naccept equal ${increment}"                 elif "${rn} <= ${boltzfactor}"                   "variable elast equal $e"                   "variable naccept equal ${increment}"                 else                   "set atom $i z ${z0}"                   "set atom $i y ${y0}"                   "set atom ${layeri} z ${z0}"                   "set atom ${layeri} y ${y0}"
set atom $i z ${z0}
set atom 48 z ${z0}
set atom 48 z 10.0294515657425
  1 settings made for z
set atom $i y ${y0}
set atom 48 y ${y0}
set atom 48 y 6.69521381187439
  1 settings made for y
set atom ${layeri} z ${z0}
set atom 47 z ${z0}
set atom 47 z 10.0294515657425
  1 settings made for z
set atom ${layeri} y ${y0}
set atom 47 y ${y0}
set atom 47 y 6.69521381187439
  1 settings made for y
variable 	nmoves equal ${nmincrement}
variable 	nmoves equal 98
next            iter
jump            SELF loop

variable        i equal ${irandom}
variable        i equal 30

# 0 for even, take away one to get lower layer
# !=0 for odd, add one to get upper layer
if		"${atomid} == 0" then                   "variable layeri equal ${loweri} "                 else                   "variable layeri equal ${upperi} "
variable layeri equal ${loweri} 
variable layeri equal 29 
variable        z0 equal ${zi}
variable        z0 equal 4.42622941684723
variable        y0 equal ${yi}
variable        y0 equal 4.58819197368622

set             atom $i z ${znew}
set             atom 30 z ${znew}
set             atom 30 z 3.7365986700058
  1 settings made for z
set             atom $i y ${ynew}
set             atom 30 y ${ynew}
set             atom 30 y 4.10517643642426
  1 settings made for y
set             atom ${layeri} z ${znew}
set             atom 29 z ${znew}
set             atom 29 z 4.46401041698456
  1 settings made for z
set             atom ${layeri} y ${ynew}
set             atom 29 y ${ynew}
set             atom 29 y 5.02595769119263
  1 settings made for y

run             1 pre no post no
Step Temp E_pair E_mol TotEng Press 
      98            0   -1043.7059            0   -1043.7059   -179.52771 
      99            0    -1435.393            0    -1435.393   -3.5318702 
Loop time of 0.0399649 on 1 procs for 1 steps with 72 atoms

100.1% CPU use with 1 MPI tasks x 1 OpenMP threads

if              "$e <= ${elast}" then                   "variable elast equal $e"                   "variable naccept equal ${increment}"                 elif "${rn} <= ${boltzfactor}"                   "variable elast equal $e"                   "variable naccept equal ${increment}"                 else                   "set atom $i z ${z0}"                   "set atom $i y ${y0}"                   "set atom ${layeri} z ${z0}"                   "set atom ${layeri} y ${y0}"
set atom $i z ${z0}
set atom 30 z ${z0}
set atom 30 z 4.42622941684723
  1 settings made for z
set atom $i y ${y0}
set atom 30 y ${y0}
set atom 30 y 4.58819197368622
  1 settings made for y
set atom ${layeri} z ${z0}
set atom 29 z ${z0}
set atom 29 z 4.42622941684723
  1 settings made for z
set atom ${layeri} y ${y0}
set atom 29 y ${y0}
set atom 29 y 4.58819197368622
  1 settings made for y
variable 	nmoves equal ${nmincrement}
variable 	nmoves equal 99
next            iter
jump            SELF loop

variable        i equal ${irandom}
variable        i equal 19

# 0 for even, take away one to get lower layer
# !=0 for odd, add one to get upper layer
if		"${atomid} == 0" then                   "variable layeri equal ${loweri} "                 else                   "variable layeri equal ${upperi} "
variable layeri equal ${upperi} 
variable layeri equal 20 
variable        z0 equal ${zi}
variable        z0 equal 6.44356555271149
variable        y0 equal ${yi}
variable        y0 equal 2.00341308689117

set             atom $i z ${znew}
set             atom 19 z ${znew}
set             atom 19 z 6.78246087360382
  1 settings made for z
set             atom $i y ${ynew}
set             atom 19 y ${ynew}
set             atom 19 y 1.94376135444641
  1 settings made for y
set             atom ${layeri} z ${znew}
set             atom 20 z ${znew}
set             atom 20 z 5.87031430530548
  1 settings made for z
set             atom ${layeri} y ${ynew}
set             atom 20 y ${ynew}
set             atom 20 y 1.51123250102997
  1 settings made for y

run             1 pre no post no
Step Temp E_pair E_mol TotEng Press 
      99            0    -1435.393            0    -1435.393   -3.5318702 
     100            0   -1438.7741            0   -1438.7741   -4.4499699 
Loop time of 0.0401568 on 1 procs for 1 steps with 72 atoms

99.6% CPU use with 1 MPI tasks x 1 OpenMP threads

if              "$e <= ${elast}" then                   "variable elast equal $e"                   "variable naccept equal ${increment}"                 elif "${rn} <= ${boltzfactor}"                   "variable elast equal $e"                   "variable naccept equal ${increment}"                 else                   "set atom $i z ${z0}"                   "set atom $i y ${y0}"                   "set atom ${layeri} z ${z0}"                   "set atom ${layeri} y ${y0}"
set atom $i z ${z0}
set atom 19 z ${z0}
set atom 19 z 6.44356555271149
  1 settings made for z
set atom $i y ${y0}
set atom 19 y ${y0}
set atom 19 y 2.00341308689117
  1 settings made for y
set atom ${layeri} z ${z0}
set atom 20 z ${z0}
set atom 20 z 6.44356555271149
  1 settings made for z
set atom ${layeri} y ${y0}
set atom 20 y ${y0}
set atom 20 y 2.00341308689117
  1 settings made for y
variable 	nmoves equal ${nmincrement}
variable 	nmoves equal 100
next            iter
jump            SELF loop

# final energy and stats

variable       nb equal nbuild
variable       nbuild equal ${nb}
variable       nbuild equal 88
variable       ratio equal "v_naccept/v_nmoves"

run             0
WARNING: No fixes defined, atoms won't move (../verlet.cpp:55)
PPPM initialization ...
WARNING: Using polynomial approximation for long-range coulomb (../kspace.cpp:316)
  G vector (1/distance) = 0.305703
  grid = 6 150 150
  stencil order = 5
  estimated absolute RMS force accuracy = 0.00150384
  estimated relative force accuracy = 0.000104436
  using double precision FFTs
  3d grid and FFT values/proc = 312325 135000
Memory usage per processor = 30.4074 Mbytes
Step Temp E_pair E_mol TotEng Press 
     100            0   -1449.2852            0   -1449.2852   -41.968641 
Loop time of 2.14577e-06 on 1 procs for 0 steps with 72 atoms

0.0% CPU use with 1 MPI tasks x 1 OpenMP threads

MPI task timing breakdown:
Section |  min time  |  avg time  |  max time  |%varavg| %total
---------------------------------------------------------------
Pair    | 0          | 0          | 0          |   0.0 |  0.00
Kspace  | 0          | 0          | 0          |   0.0 |  0.00
Neigh   | 0          | 0          | 0          |   0.0 |  0.00
Comm    | 0          | 0          | 0          |   0.0 |  0.00
Output  | 0          | 0          | 0          |   0.0 |  0.00
Modify  | 0          | 0          | 0          |   0.0 |  0.00
Other   |            | 2.146e-06  |            |       |100.00

Nlocal:    72 ave 72 max 72 min
Histogram: 1 0 0 0 0 0 0 0 0 0
Nghost:    324 ave 324 max 324 min
Histogram: 1 0 0 0 0 0 0 0 0 0
Neighs:    7958 ave 7958 max 7958 min
Histogram: 1 0 0 0 0 0 0 0 0 0

Total # of neighbors = 7958
Ave neighs/atom = 110.528
Neighbor list builds = 0
Dangerous builds = 0

#-------------------------END OF MONTE CARLO------------------------
print           "MC stats:"
MC stats:
print           "  neighbor list rebuilds = ${nbuild}"
  neighbor list rebuilds = 88
print           "  starting energy = ${estart}"
  starting energy = -1443.5225841969
print           "  final energy = $e"
  final energy = -1449.28521613178
print           "  minimum energy of perfect lattice = ${emin}"
  minimum energy of perfect lattice = -1461.67011902226
print           "  accepted MC moves = ${naccept}"
  accepted MC moves = 3
print 		"  Total moves = ${nmoves}"
  Total moves = 100
print 		"  Ratio of accepted/Total = ${ratio}"
  Ratio of accepted/Total = 0.03

print "Calculation complete"
Calculation complete
Total wall time: 0:00:04
