LAMMPS (1 Jul 2016-ICMS)
WARNING: OMP_NUM_THREADS environment is not set. (../comm.cpp:90)
  using 1 OpenMP thread(s) per MPI task
#---------------------------WELCOME----------------------------
print "Optimise lattice constant of MgO crystal"
Optimise lattice constant of MgO crystal

#--------------------INITIALISATION----------------------------
units metal		#distance in A and energy in eV
atom_style charge	#specifies what properties to associate with atoms

#cell vectors
variable a equal  4.212
atom_modify     map array sort 0 0.0

region box block 0.0 4.212 0.0 12.636 0.0 12.636 units box
boundary p p p  #PBC in x-direction
create_box 2 box  #generate simulation box
Created orthogonal box = (0 0 0) to (4.212 12.636 12.636)
  1 by 1 by 1 MPI processor grid

# set these parameters
# make sure neigh skin > 2*deltamove

#---------------------------- Parameters ----------------------------------------
#Number of montecarlo steps to run for
variable iter loop 1000
#number of steps to disorder system (inf temp)
variable disorder equal 1000

#Temperature
variable T equal 0.025
#Inf temp for disordering
variable kT equal 1000 		#inf T for disorder phase

variable deltaperturb equal 0.0    #0.2 max size of initial perturbation per dim
variable deltamove equal 1      #0.1 max size of MC move in one dimension

variable seed equal 582783         # RNG seed
#-------------------------------------------------------------------------------------

#read in coordinates
read_dump testmc.xyz 0 x y z box no add yes format xyz
  orthogonal box = (0 0 0) to (4.212 12.636 12.636)
  0 atoms before read
  72 atoms in snapshot
  0 atoms purged
  0 atoms replaced
  0 atoms trimmed
  72 atoms added
  72 atoms after read

#set up potential
set type 1 charge  2.000000
  36 settings made for charge
set type 2 charge -2.000000
  36 settings made for charge

mass 1 24.305 #specify mass of atoms
mass 2 15.9994 #specify mass of atoms

pair_style hybrid/overlay buck 8.0 coul/long 8.0
pair_coeff 1 2 buck 1284.38000  0.299700  0.000000 8.0
pair_coeff 2 2 buck 9574.95996  0.219200  32.00000 8.0
pair_coeff * * coul/long
kspace_style pppm 1.0e-4
pair_modify table 0

neighbor 2.0 bin
neigh_modify delay 0 every 1 check yes

variable        e equal pe

# run 0 to get energy of perfect lattice
# emin = minimum energy

run             0
WARNING: No fixes defined, atoms won't move (../verlet.cpp:55)
PPPM initialization ...
WARNING: Using polynomial approximation for long-range coulomb (../kspace.cpp:316)
  G vector (1/distance) = 0.400041
  grid = 8 15 15
  stencil order = 5
  estimated absolute RMS force accuracy = 0.000671313
  estimated relative force accuracy = 4.66201e-05
  using double precision FFTs
  3d grid and FFT values/proc = 8228 1800
Neighbor list info ...
  2 neighbor list requests
  update every 1 steps, delay 0 steps, check yes
  max neighbors/atom: 2000, page size: 100000
  master list distance cutoff = 10
  ghost atom cutoff = 10
  binsize = 5 -> bins = 1 3 3
Memory usage per processor = 3.49055 Mbytes
Step Temp E_pair E_mol TotEng Press 
       0            0   -1481.4266            0   -1481.4266    672.06402 
Loop time of 9.53674e-07 on 1 procs for 0 steps with 72 atoms

0.0% CPU use with 1 MPI tasks x 1 OpenMP threads

MPI task timing breakdown:
Section |  min time  |  avg time  |  max time  |%varavg| %total
---------------------------------------------------------------
Pair    | 0          | 0          | 0          |   0.0 |  0.00
Kspace  | 0          | 0          | 0          |   0.0 |  0.00
Neigh   | 0          | 0          | 0          |   0.0 |  0.00
Comm    | 0          | 0          | 0          |   0.0 |  0.00
Output  | 0          | 0          | 0          |   0.0 |  0.00
Modify  | 0          | 0          | 0          |   0.0 |  0.00
Other   |            | 9.537e-07  |            |       |100.00

Nlocal:    72 ave 72 max 72 min
Histogram: 1 0 0 0 0 0 0 0 0 0
Nghost:    2403 ave 2403 max 2403 min
Histogram: 1 0 0 0 0 0 0 0 0 0
Neighs:    16560 ave 16560 max 16560 min
Histogram: 1 0 0 0 0 0 0 0 0 0

Total # of neighbors = 16560
Ave neighs/atom = 230
Neighbor list builds = 0
Dangerous builds = 0
variable        emin equal $e
variable        emin equal -1481.42658366852

# -------------------------- setting up system and random displacements -------------
# estart = initial energy

variable        z atom z
variable        y atom y

#variable        z atom z+v_deltaperturb*random(-1.0,1.0,${seed})
#variable        y atom y+v_deltaperturb*random(-1.0,1.0,${seed})

set             group all z v_z
  72 settings made for z
set             group all y v_y
  72 settings made for y
#-------------------------------------------------------------------------------------
dump 1 all custom 1 dumpmc.lammpstrj id type xs ys zs  #dump info to trjectory file

run             0
WARNING: No fixes defined, atoms won't move (../verlet.cpp:55)
PPPM initialization ...
WARNING: Using polynomial approximation for long-range coulomb (../kspace.cpp:316)
  G vector (1/distance) = 0.400041
  grid = 8 15 15
  stencil order = 5
  estimated absolute RMS force accuracy = 0.000671313
  estimated relative force accuracy = 4.66201e-05
  using double precision FFTs
  3d grid and FFT values/proc = 8228 1800
Memory usage per processor = 4.7433 Mbytes
Step Temp E_pair E_mol TotEng Press 
       0            0   -1481.4266            0   -1481.4266    672.06402 
Loop time of 1.19209e-06 on 1 procs for 0 steps with 72 atoms

0.0% CPU use with 1 MPI tasks x 1 OpenMP threads

MPI task timing breakdown:
Section |  min time  |  avg time  |  max time  |%varavg| %total
---------------------------------------------------------------
Pair    | 0          | 0          | 0          |   0.0 |  0.00
Kspace  | 0          | 0          | 0          |   0.0 |  0.00
Neigh   | 0          | 0          | 0          |   0.0 |  0.00
Comm    | 0          | 0          | 0          |   0.0 |  0.00
Output  | 0          | 0          | 0          |   0.0 |  0.00
Modify  | 0          | 0          | 0          |   0.0 |  0.00
Other   |            | 1.192e-06  |            |       |100.00

Nlocal:    72 ave 72 max 72 min
Histogram: 1 0 0 0 0 0 0 0 0 0
Nghost:    2403 ave 2403 max 2403 min
Histogram: 1 0 0 0 0 0 0 0 0 0
Neighs:    16560 ave 16560 max 16560 min
Histogram: 1 0 0 0 0 0 0 0 0 0

Total # of neighbors = 16560
Ave neighs/atom = 230
Neighbor list builds = 0
Dangerous builds = 0

variable        estart equal $e
variable        estart equal -1481.42658366852
variable        elast equal $e
variable        elast equal -1481.42658366852

#-------------------- loop over Monte Carlo moves ----------------------------
#counters
variable        naccept equal 0
variable        increment equal v_naccept+1
variable 	nmoves equal 0.0
variable 	nmincrement equal v_nmoves+1
variable 	disordercounter equal 0
variable 	disincrement equal v_disordercounter+1

variable        irandom equal floor(atoms*random(0.0,1.0,${seed})+1)
variable        irandom equal floor(atoms*random(0.0,1.0,582783)+1)
variable        rn equal random(0.0,1.0,${seed})
variable        rn equal random(0.0,1.0,582783)
variable        boltzfactor equal "exp(atoms*(v_elast - v_e) / v_kT)"

variable        znew equal z[v_i]+v_deltamove*random(-1.0,1.0,${seed})
variable        znew equal z[v_i]+v_deltamove*random(-1.0,1.0,582783)
variable        ynew equal y[v_i]+v_deltamove*random(-1.0,1.0,${seed})
variable        ynew equal y[v_i]+v_deltamove*random(-1.0,1.0,582783)

variable 	atomid equal v_i%2
variable        zi equal z[v_i]
variable        yi equal y[v_i]
variable	layeri equal 0
variable 	loweri equal "v_i - 1"
variable 	upperi equal "v_i + 1"

#--------------------- LOOP -----------------------------------
label           loop
print "${kT}"
1000
variable        i equal ${irandom}
variable        i equal 48

# 0 for even, take away one to get lower layer
# !=0 for odd, add one to get upper layer
if		"${atomid} == 0" then                   "variable layeri equal ${loweri} "                 else                   "variable layeri equal ${upperi} "
variable layeri equal ${loweri} 
variable layeri equal 47 
variable        z0 equal ${zi}
variable        z0 equal 10.53
variable        y0 equal ${yi}
variable        y0 equal 6.318

variable 	zupdate equal ${znew}
variable 	zupdate equal 10.8317662763596
variable 	yupdate equal ${ynew}
variable 	yupdate equal 5.44353024291992

# ---------------- Update pair of atoms (columns)-----------------
set             atom $i z ${zupdate}
set             atom 48 z ${zupdate}
set             atom 48 z 10.8317662763596
  1 settings made for z
set             atom $i y ${yupdate}
set             atom 48 y ${yupdate}
set             atom 48 y 5.44353024291992
  1 settings made for y

set             atom ${layeri} z ${zupdate}
set             atom 47 z ${zupdate}
set             atom 47 z 10.8317662763596
  1 settings made for z
set             atom ${layeri} y ${yupdate}
set             atom 47 y ${yupdate}
set             atom 47 y 5.44353024291992
  1 settings made for y
#--------------------------------------------------------------
run             1 pre no post no
Step Temp E_pair E_mol TotEng Press 
       0            0   -1481.4266            0   -1481.4266    672.06402 
       1            0    -1460.918            0    -1460.918    91971.329 
Loop time of 0.00197601 on 1 procs for 1 steps with 72 atoms

202.4% CPU use with 1 MPI tasks x 1 OpenMP threads

#--------------------- Energy check ------------------------
if              "$e <= ${elast}" then                   "variable elast equal $e"                   "variable naccept equal ${increment}"                 elif "${rn} <= ${boltzfactor}"                   "variable elast equal $e"                   "variable naccept equal ${increment}"                 else                   "set atom $i z ${z0}"                   "set atom $i y ${y0}"                   "set atom ${layeri} z ${z0}"                   "set atom ${layeri} y ${y0}" #--------------------------------------------------------------
set atom $i z ${z0}
set atom 48 z ${z0}
set atom 48 z 10.53
  1 settings made for z
set atom $i y ${y0}
set atom 48 y ${y0}
set atom 48 y 6.318
  1 settings made for y
set atom ${layeri} z ${z0}
set atom 47 z ${z0}
set atom 47 z 10.53
  1 settings made for z
set atom ${layeri} y ${y0}
set atom 47 y ${y0}
set atom 47 y 6.318
  1 settings made for y
variable nmoves equal ${nmincrement}
variable nmoves equal 1

variable 	disordercounter equal ${disincrement}
variable 	disordercounter equal 1

# ------- To stop when sufficiently disordered, reset counters -------------

if		"${disordercounter} == ${disorder}" then 		"variable kT equal $T" 		"variable dismoves equal ${nmoves}" 		"variable disaccept equal ${naccept}" #--------------------------------------------------------------------------
next            iter
jump            SELF loop
print "${kT}"
1000
variable        i equal ${irandom}
variable        i equal 12

# 0 for even, take away one to get lower layer
# !=0 for odd, add one to get upper layer
if		"${atomid} == 0" then                   "variable layeri equal ${loweri} "                 else                   "variable layeri equal ${upperi} "
variable layeri equal ${loweri} 
variable layeri equal 11 
variable        z0 equal ${zi}
variable        z0 equal 10.53
variable        y0 equal ${yi}
variable        y0 equal 0

variable 	zupdate equal ${znew}
variable 	zupdate equal 11.4670536804199
variable 	yupdate equal ${ynew}
variable 	yupdate equal -0.103195190429688

# ---------------- Update pair of atoms (columns)-----------------
set             atom $i z ${zupdate}
set             atom 12 z ${zupdate}
set             atom 12 z 11.4670536804199
  1 settings made for z
set             atom $i y ${yupdate}
set             atom 12 y ${yupdate}
set             atom 12 y -0.103195190429688
  1 settings made for y

set             atom ${layeri} z ${zupdate}
set             atom 11 z ${zupdate}
set             atom 11 z 11.4670536804199
  1 settings made for z
set             atom ${layeri} y ${yupdate}
set             atom 11 y ${yupdate}
set             atom 11 y -0.103195190429688
  1 settings made for y
#--------------------------------------------------------------
run             1 pre no post no
Step Temp E_pair E_mol TotEng Press 
       1            0    -1460.918            0    -1460.918    91971.329 
       2            0   -1452.9076            0   -1452.9076    115868.98 
Loop time of 0.00198603 on 1 procs for 1 steps with 72 atoms

201.4% CPU use with 1 MPI tasks x 1 OpenMP threads

#--------------------- Energy check ------------------------
if              "$e <= ${elast}" then                   "variable elast equal $e"                   "variable naccept equal ${increment}"                 elif "${rn} <= ${boltzfactor}"                   "variable elast equal $e"                   "variable naccept equal ${increment}"                 else                   "set atom $i z ${z0}"                   "set atom $i y ${y0}"                   "set atom ${layeri} z ${z0}"                   "set atom ${layeri} y ${y0}" #--------------------------------------------------------------
set atom $i z ${z0}
set atom 12 z ${z0}
set atom 12 z 10.53
  1 settings made for z
set atom $i y ${y0}
set atom 12 y ${y0}
set atom 12 y 0
  1 settings made for y
set atom ${layeri} z ${z0}
set atom 11 z ${z0}
set atom 11 z 10.53
  1 settings made for z
set atom ${layeri} y ${y0}
set atom 11 y ${y0}
set atom 11 y 0
  1 settings made for y
variable nmoves equal ${nmincrement}
variable nmoves equal 2

variable 	disordercounter equal ${disincrement}
variable 	disordercounter equal 2

# ------- To stop when sufficiently disordered, reset counters -------------

if		"${disordercounter} == ${disorder}" then 		"variable kT equal $T" 		"variable dismoves equal ${nmoves}" 		"variable disaccept equal ${naccept}" #--------------------------------------------------------------------------
next            iter
jump            SELF loop
print "${kT}"
1000
variable        i equal ${irandom}
variable        i equal 37

# 0 for even, take away one to get lower layer
# !=0 for odd, add one to get upper layer
if		"${atomid} == 0" then                   "variable layeri equal ${loweri} "                 else                   "variable layeri equal ${upperi} "
variable layeri equal ${upperi} 
variable layeri equal 38 
variable        z0 equal ${zi}
variable        z0 equal 0
variable        y0 equal ${yi}
variable        y0 equal 6.318

variable 	zupdate equal ${znew}
variable 	zupdate equal 0.422338724136353
variable 	yupdate equal ${ynew}
variable 	yupdate equal 5.83992902565002

# ---------------- Update pair of atoms (columns)-----------------
set             atom $i z ${zupdate}
set             atom 37 z ${zupdate}
set             atom 37 z 0.422338724136353
  1 settings made for z
set             atom $i y ${yupdate}
set             atom 37 y ${yupdate}
set             atom 37 y 5.83992902565002
  1 settings made for y

set             atom ${layeri} z ${zupdate}
set             atom 38 z ${zupdate}
set             atom 38 z 0.422338724136353
  1 settings made for z
set             atom ${layeri} y ${yupdate}
set             atom 38 y ${yupdate}
set             atom 38 y 5.83992902565002
  1 settings made for y
#--------------------------------------------------------------
run             1 pre no post no
Step Temp E_pair E_mol TotEng Press 
       2            0   -1452.9076            0   -1452.9076    115868.98 
       3            0   -1476.3686            0   -1476.3686    31557.188 
Loop time of 0.00196195 on 1 procs for 1 steps with 72 atoms

0.0% CPU use with 1 MPI tasks x 1 OpenMP threads

#--------------------- Energy check ------------------------
if              "$e <= ${elast}" then                   "variable elast equal $e"                   "variable naccept equal ${increment}"                 elif "${rn} <= ${boltzfactor}"                   "variable elast equal $e"                   "variable naccept equal ${increment}"                 else                   "set atom $i z ${z0}"                   "set atom $i y ${y0}"                   "set atom ${layeri} z ${z0}"                   "set atom ${layeri} y ${y0}" #--------------------------------------------------------------
variable elast equal $e
variable elast equal -1476.36858501566
variable naccept equal ${increment}
variable naccept equal 1
variable nmoves equal ${nmincrement}
variable nmoves equal 3

variable 	disordercounter equal ${disincrement}
variable 	disordercounter equal 3

# ------- To stop when sufficiently disordered, reset counters -------------

if		"${disordercounter} == ${disorder}" then 		"variable kT equal $T" 		"variable dismoves equal ${nmoves}" 		"variable disaccept equal ${naccept}" #--------------------------------------------------------------------------
next            iter
jump            SELF loop
print "${kT}"
1000
variable        i equal ${irandom}
variable        i equal 13

# 0 for even, take away one to get lower layer
# !=0 for odd, add one to get upper layer
if		"${atomid} == 0" then                   "variable layeri equal ${loweri} "                 else                   "variable layeri equal ${upperi} "
variable layeri equal ${upperi} 
variable layeri equal 14 
variable        z0 equal ${zi}
variable        z0 equal 0
variable        y0 equal ${yi}
variable        y0 equal 2.106

variable 	zupdate equal ${znew}
variable 	zupdate equal -0.346977591514587
variable 	yupdate equal ${ynew}
variable 	yupdate equal 1.30281179523468

# ---------------- Update pair of atoms (columns)-----------------
set             atom $i z ${zupdate}
set             atom 13 z ${zupdate}
set             atom 13 z -0.346977591514587
  1 settings made for z
set             atom $i y ${yupdate}
set             atom 13 y ${yupdate}
set             atom 13 y 1.30281179523468
  1 settings made for y

set             atom ${layeri} z ${zupdate}
set             atom 14 z ${zupdate}
set             atom 14 z -0.346977591514587
  1 settings made for z
set             atom ${layeri} y ${yupdate}
set             atom 14 y ${yupdate}
set             atom 14 y 1.30281179523468
  1 settings made for y
#--------------------------------------------------------------
run             1 pre no post no
Step Temp E_pair E_mol TotEng Press 
       3            0   -1476.3686            0   -1476.3686    31557.188 
       4            0   -1461.2521            0   -1461.2521    104865.82 
Loop time of 0.00196099 on 1 procs for 1 steps with 72 atoms

0.0% CPU use with 1 MPI tasks x 1 OpenMP threads

#--------------------- Energy check ------------------------
if              "$e <= ${elast}" then                   "variable elast equal $e"                   "variable naccept equal ${increment}"                 elif "${rn} <= ${boltzfactor}"                   "variable elast equal $e"                   "variable naccept equal ${increment}"                 else                   "set atom $i z ${z0}"                   "set atom $i y ${y0}"                   "set atom ${layeri} z ${z0}"                   "set atom ${layeri} y ${y0}" #--------------------------------------------------------------
variable elast equal $e
variable elast equal -1461.25211634034
variable naccept equal ${increment}
variable naccept equal 2
variable nmoves equal ${nmincrement}
variable nmoves equal 4

variable 	disordercounter equal ${disincrement}
variable 	disordercounter equal 4

# ------- To stop when sufficiently disordered, reset counters -------------

if		"${disordercounter} == ${disorder}" then 		"variable kT equal $T" 		"variable dismoves equal ${nmoves}" 		"variable disaccept equal ${naccept}" #--------------------------------------------------------------------------
next            iter
jump            SELF loop
print "${kT}"
1000
variable        i equal ${irandom}
variable        i equal 29

# 0 for even, take away one to get lower layer
# !=0 for odd, add one to get upper layer
if		"${atomid} == 0" then                   "variable layeri equal ${loweri} "                 else                   "variable layeri equal ${upperi} "
variable layeri equal ${upperi} 
variable layeri equal 30 
variable        z0 equal ${zi}
variable        z0 equal 4.212
variable        y0 equal ${yi}
variable        y0 equal 4.212

variable 	zupdate equal ${znew}
variable 	zupdate equal 4.07148073863983
variable 	yupdate equal ${ynew}
variable 	yupdate equal 3.55711232376099

# ---------------- Update pair of atoms (columns)-----------------
set             atom $i z ${zupdate}
set             atom 29 z ${zupdate}
set             atom 29 z 4.07148073863983
  1 settings made for z
set             atom $i y ${yupdate}
set             atom 29 y ${yupdate}
set             atom 29 y 3.55711232376099
  1 settings made for y

set             atom ${layeri} z ${zupdate}
set             atom 30 z ${zupdate}
set             atom 30 z 4.07148073863983
  1 settings made for z
set             atom ${layeri} y ${yupdate}
set             atom 30 y ${yupdate}
set             atom 30 y 3.55711232376099
  1 settings made for y
#--------------------------------------------------------------
run             1 pre no post no
Step Temp E_pair E_mol TotEng Press 
       4            0   -1461.2521            0   -1461.2521    104865.82 
       5            0   -1452.6787            0   -1452.6787    150035.39 
Loop time of 0.00194097 on 1 procs for 1 steps with 72 atoms

206.1% CPU use with 1 MPI tasks x 1 OpenMP threads

#--------------------- Energy check ------------------------
if              "$e <= ${elast}" then                   "variable elast equal $e"                   "variable naccept equal ${increment}"                 elif "${rn} <= ${boltzfactor}"                   "variable elast equal $e"                   "variable naccept equal ${increment}"                 else                   "set atom $i z ${z0}"                   "set atom $i y ${y0}"                   "set atom ${layeri} z ${z0}"                   "set atom ${layeri} y ${y0}" #--------------------------------------------------------------
set atom $i z ${z0}
set atom 29 z ${z0}
set atom 29 z 4.212
  1 settings made for z
set atom $i y ${y0}
set atom 29 y ${y0}
set atom 29 y 4.212
  1 settings made for y
set atom ${layeri} z ${z0}
set atom 30 z ${z0}
set atom 30 z 4.212
  1 settings made for z
set atom ${layeri} y ${y0}
set atom 30 y ${y0}
set atom 30 y 4.212
  1 settings made for y
variable nmoves equal ${nmincrement}
variable nmoves equal 5

variable 	disordercounter equal ${disincrement}
variable 	disordercounter equal 5

# ------- To stop when sufficiently disordered, reset counters -------------

if		"${disordercounter} == ${disorder}" then 		"variable kT equal $T" 		"variable dismoves equal ${nmoves}" 		"variable disaccept equal ${naccept}" #--------------------------------------------------------------------------
next            iter
jump            SELF loop
print "${kT}"
1000
variable        i equal ${irandom}
variable        i equal 42

# 0 for even, take away one to get lower layer
# !=0 for odd, add one to get upper layer
if		"${atomid} == 0" then                   "variable layeri equal ${loweri} "                 else                   "variable layeri equal ${upperi} "
variable layeri equal ${loweri} 
variable layeri equal 41 
variable        z0 equal ${zi}
variable        z0 equal 4.212
variable        y0 equal ${yi}
variable        y0 equal 6.318

variable 	zupdate equal ${znew}
variable 	zupdate equal 5.12414489936829
variable 	yupdate equal ${ynew}
variable 	yupdate equal 7.06801204013824

# ---------------- Update pair of atoms (columns)-----------------
set             atom $i z ${zupdate}
set             atom 42 z ${zupdate}
set             atom 42 z 5.12414489936829
  1 settings made for z
set             atom $i y ${yupdate}
set             atom 42 y ${yupdate}
set             atom 42 y 7.06801204013824
  1 settings made for y

set             atom ${layeri} z ${zupdate}
set             atom 41 z ${zupdate}
set             atom 41 z 5.12414489936829
  1 settings made for z
set             atom ${layeri} y ${yupdate}
set             atom 41 y ${yupdate}
set             atom 41 y 7.06801204013824
  1 settings made for y
#--------------------------------------------------------------
run             1 pre no post no
Step Temp E_pair E_mol TotEng Press 
       5            0   -1452.6787            0   -1452.6787    150035.39 
       6            0   -1440.3896            0   -1440.3896    201366.15 
Loop time of 0.002666 on 1 procs for 1 steps with 72 atoms

150.0% CPU use with 1 MPI tasks x 1 OpenMP threads

#--------------------- Energy check ------------------------
if              "$e <= ${elast}" then                   "variable elast equal $e"                   "variable naccept equal ${increment}"                 elif "${rn} <= ${boltzfactor}"                   "variable elast equal $e"                   "variable naccept equal ${increment}"                 else                   "set atom $i z ${z0}"                   "set atom $i y ${y0}"                   "set atom ${layeri} z ${z0}"                   "set atom ${layeri} y ${y0}" #--------------------------------------------------------------
set atom $i z ${z0}
set atom 42 z ${z0}
set atom 42 z 4.212
  1 settings made for z
set atom $i y ${y0}
set atom 42 y ${y0}
set atom 42 y 6.318
  1 settings made for y
set atom ${layeri} z ${z0}
set atom 41 z ${z0}
set atom 41 z 4.212
  1 settings made for z
set atom ${layeri} y ${y0}
set atom 41 y ${y0}
set atom 41 y 6.318
  1 settings made for y
variable nmoves equal ${nmincrement}
variable nmoves equal 6

variable 	disordercounter equal ${disincrement}
variable 	disordercounter equal 6

# ------- To stop when sufficiently disordered, reset counters -------------

if		"${disordercounter} == ${disorder}" then 		"variable kT equal $T" 		"variable dismoves equal ${nmoves}" 		"variable disaccept equal ${naccept}" #--------------------------------------------------------------------------
next            iter
jump            SELF loop
print "${kT}"
1000
variable        i equal ${irandom}
variable        i equal 35

# 0 for even, take away one to get lower layer
# !=0 for odd, add one to get upper layer
if		"${atomid} == 0" then                   "variable layeri equal ${loweri} "                 else                   "variable layeri equal ${upperi} "
variable layeri equal ${upperi} 
variable layeri equal 36 
variable        z0 equal ${zi}
variable        z0 equal 10.53
variable        y0 equal ${yi}
variable        y0 equal 4.212

variable 	zupdate equal ${znew}
variable 	zupdate equal 10.9437387275696
variable 	yupdate equal ${ynew}
variable 	yupdate equal 4.85703955841064

# ---------------- Update pair of atoms (columns)-----------------
set             atom $i z ${zupdate}
set             atom 35 z ${zupdate}
set             atom 35 z 10.9437387275696
  1 settings made for z
set             atom $i y ${yupdate}
set             atom 35 y ${yupdate}
set             atom 35 y 4.85703955841064
  1 settings made for y

set             atom ${layeri} z ${zupdate}
set             atom 36 z ${zupdate}
set             atom 36 z 10.9437387275696
  1 settings made for z
set             atom ${layeri} y ${yupdate}
set             atom 36 y ${yupdate}
set             atom 36 y 4.85703955841064
  1 settings made for y
#--------------------------------------------------------------
run             1 pre no post no
Step Temp E_pair E_mol TotEng Press 
       6            0   -1440.3896            0   -1440.3896    201366.15 
       7            0   -1453.3738            0   -1453.3738    150855.74 
Loop time of 0.00262713 on 1 procs for 1 steps with 72 atoms

152.3% CPU use with 1 MPI tasks x 1 OpenMP threads

#--------------------- Energy check ------------------------
if              "$e <= ${elast}" then                   "variable elast equal $e"                   "variable naccept equal ${increment}"                 elif "${rn} <= ${boltzfactor}"                   "variable elast equal $e"                   "variable naccept equal ${increment}"                 else                   "set atom $i z ${z0}"                   "set atom $i y ${y0}"                   "set atom ${layeri} z ${z0}"                   "set atom ${layeri} y ${y0}" #--------------------------------------------------------------
variable elast equal $e
variable elast equal -1453.37380179311
variable naccept equal ${increment}
variable naccept equal 3
variable nmoves equal ${nmincrement}
variable nmoves equal 7

variable 	disordercounter equal ${disincrement}
variable 	disordercounter equal 7

# ------- To stop when sufficiently disordered, reset counters -------------

if		"${disordercounter} == ${disorder}" then 		"variable kT equal $T" 		"variable dismoves equal ${nmoves}" 		"variable disaccept equal ${naccept}" #--------------------------------------------------------------------------
next            iter
jump            SELF loop
print "${kT}"
1000
variable        i equal ${irandom}
variable        i equal 15

# 0 for even, take away one to get lower layer
# !=0 for odd, add one to get upper layer
if		"${atomid} == 0" then                   "variable layeri equal ${loweri} "                 else                   "variable layeri equal ${upperi} "
variable layeri equal ${upperi} 
variable layeri equal 16 
variable        z0 equal ${zi}
variable        z0 equal 2.106
variable        y0 equal ${yi}
variable        y0 equal 2.106

variable 	zupdate equal ${znew}
variable 	zupdate equal 2.90963845825195
variable 	yupdate equal ${ynew}
variable 	yupdate equal 2.87712364768982

# ---------------- Update pair of atoms (columns)-----------------
set             atom $i z ${zupdate}
set             atom 15 z ${zupdate}
set             atom 15 z 2.90963845825195
  1 settings made for z
set             atom $i y ${yupdate}
set             atom 15 y ${yupdate}
set             atom 15 y 2.87712364768982
  1 settings made for y

set             atom ${layeri} z ${zupdate}
set             atom 16 z ${zupdate}
set             atom 16 z 2.90963845825195
  1 settings made for z
set             atom ${layeri} y ${yupdate}
set             atom 16 y ${yupdate}
set             atom 16 y 2.87712364768982
  1 settings made for y
#--------------------------------------------------------------
run             1 pre no post no
Step Temp E_pair E_mol TotEng Press 
       7            0   -1453.3738            0   -1453.3738    150855.74 
       8            0   -1437.0713            0   -1437.0713    241520.82 
Loop time of 0.00262809 on 1 procs for 1 steps with 72 atoms

152.2% CPU use with 1 MPI tasks x 1 OpenMP threads

#--------------------- Energy check ------------------------
if              "$e <= ${elast}" then                   "variable elast equal $e"                   "variable naccept equal ${increment}"                 elif "${rn} <= ${boltzfactor}"                   "variable elast equal $e"                   "variable naccept equal ${increment}"                 else                   "set atom $i z ${z0}"                   "set atom $i y ${y0}"                   "set atom ${layeri} z ${z0}"                   "set atom ${layeri} y ${y0}" #--------------------------------------------------------------
set atom $i z ${z0}
set atom 15 z ${z0}
set atom 15 z 2.106
  1 settings made for z
set atom $i y ${y0}
set atom 15 y ${y0}
set atom 15 y 2.106
  1 settings made for y
set atom ${layeri} z ${z0}
set atom 16 z ${z0}
set atom 16 z 2.106
  1 settings made for z
set atom ${layeri} y ${y0}
set atom 16 y ${y0}
set atom 16 y 2.106
  1 settings made for y
variable nmoves equal ${nmincrement}
variable nmoves equal 8

variable 	disordercounter equal ${disincrement}
variable 	disordercounter equal 8

# ------- To stop when sufficiently disordered, reset counters -------------

if		"${disordercounter} == ${disorder}" then 		"variable kT equal $T" 		"variable dismoves equal ${nmoves}" 		"variable disaccept equal ${naccept}" #--------------------------------------------------------------------------
next            iter
jump            SELF loop
print "${kT}"
1000
variable        i equal ${irandom}
variable        i equal 20

# 0 for even, take away one to get lower layer
# !=0 for odd, add one to get upper layer
if		"${atomid} == 0" then                   "variable layeri equal ${loweri} "                 else                   "variable layeri equal ${upperi} "
variable layeri equal ${loweri} 
variable layeri equal 19 
variable        z0 equal ${zi}
variable        z0 equal 6.318
variable        y0 equal ${yi}
variable        y0 equal 2.106

variable 	zupdate equal ${znew}
variable 	zupdate equal 6.83017079162598
variable 	yupdate equal ${ynew}
variable 	yupdate equal 1.56797772026062

# ---------------- Update pair of atoms (columns)-----------------
set             atom $i z ${zupdate}
set             atom 20 z ${zupdate}
set             atom 20 z 6.83017079162598
  1 settings made for z
set             atom $i y ${yupdate}
set             atom 20 y ${yupdate}
set             atom 20 y 1.56797772026062
  1 settings made for y

set             atom ${layeri} z ${zupdate}
set             atom 19 z ${zupdate}
set             atom 19 z 6.83017079162598
  1 settings made for z
set             atom ${layeri} y ${yupdate}
set             atom 19 y ${yupdate}
set             atom 19 y 1.56797772026062
  1 settings made for y
#--------------------------------------------------------------
run             1 pre no post no
Step Temp E_pair E_mol TotEng Press 
       8            0   -1437.0713            0   -1437.0713    241520.82 
       9            0    -1446.342            0    -1446.342    191783.97 
Loop time of 0.0026269 on 1 procs for 1 steps with 72 atoms

152.3% CPU use with 1 MPI tasks x 1 OpenMP threads

#--------------------- Energy check ------------------------
if              "$e <= ${elast}" then                   "variable elast equal $e"                   "variable naccept equal ${increment}"                 elif "${rn} <= ${boltzfactor}"                   "variable elast equal $e"                   "variable naccept equal ${increment}"                 else                   "set atom $i z ${z0}"                   "set atom $i y ${y0}"                   "set atom ${layeri} z ${z0}"                   "set atom ${layeri} y ${y0}" #--------------------------------------------------------------
variable elast equal $e
variable elast equal -1446.34198034964
variable naccept equal ${increment}
variable naccept equal 4
variable nmoves equal ${nmincrement}
variable nmoves equal 9

variable 	disordercounter equal ${disincrement}
variable 	disordercounter equal 9

# ------- To stop when sufficiently disordered, reset counters -------------

if		"${disordercounter} == ${disorder}" then 		"variable kT equal $T" 		"variable dismoves equal ${nmoves}" 		"variable disaccept equal ${naccept}" #--------------------------------------------------------------------------
next            iter
jump            SELF loop
print "${kT}"
1000
variable        i equal ${irandom}
variable        i equal 33

# 0 for even, take away one to get lower layer
# !=0 for odd, add one to get upper layer
if		"${atomid} == 0" then                   "variable layeri equal ${loweri} "                 else                   "variable layeri equal ${upperi} "
variable layeri equal ${upperi} 
variable layeri equal 34 
variable        z0 equal ${zi}
variable        z0 equal 8.424
variable        y0 equal ${yi}
variable        y0 equal 4.212

variable 	zupdate equal ${znew}
variable 	zupdate equal 9.37619194889069
variable 	yupdate equal ${ynew}
variable 	yupdate equal 3.26901208114624

# ---------------- Update pair of atoms (columns)-----------------
set             atom $i z ${zupdate}
set             atom 33 z ${zupdate}
set             atom 33 z 9.37619194889069
  1 settings made for z
set             atom $i y ${yupdate}
set             atom 33 y ${yupdate}
set             atom 33 y 3.26901208114624
  1 settings made for y

set             atom ${layeri} z ${zupdate}
set             atom 34 z ${zupdate}
set             atom 34 z 9.37619194889069
  1 settings made for z
set             atom ${layeri} y ${yupdate}
set             atom 34 y ${yupdate}
set             atom 34 y 3.26901208114624
  1 settings made for y
#--------------------------------------------------------------
run             1 pre no post no
Step Temp E_pair E_mol TotEng Press 
       9            0    -1446.342            0    -1446.342    191783.97 
      10            0   -1422.9583            0   -1422.9583    264142.51 
Loop time of 0.00263405 on 1 procs for 1 steps with 72 atoms

151.9% CPU use with 1 MPI tasks x 1 OpenMP threads

#--------------------- Energy check ------------------------
if              "$e <= ${elast}" then                   "variable elast equal $e"                   "variable naccept equal ${increment}"                 elif "${rn} <= ${boltzfactor}"                   "variable elast equal $e"                   "variable naccept equal ${increment}"                 else                   "set atom $i z ${z0}"                   "set atom $i y ${y0}"                   "set atom ${layeri} z ${z0}"                   "set atom ${layeri} y ${y0}" #--------------------------------------------------------------
set atom $i z ${z0}
set atom 33 z ${z0}
set atom 33 z 8.424
  1 settings made for z
set atom $i y ${y0}
set atom 33 y ${y0}
set atom 33 y 4.212
  1 settings made for y
set atom ${layeri} z ${z0}
set atom 34 z ${z0}
set atom 34 z 8.424
  1 settings made for z
set atom ${layeri} y ${y0}
set atom 34 y ${y0}
set atom 34 y 4.212
  1 settings made for y
variable nmoves equal ${nmincrement}
variable nmoves equal 10

variable 	disordercounter equal ${disincrement}
variable 	disordercounter equal 10

# ------- To stop when sufficiently disordered, reset counters -------------

if		"${disordercounter} == ${disorder}" then 		"variable kT equal $T" 		"variable dismoves equal ${nmoves}" 		"variable disaccept equal ${naccept}" #--------------------------------------------------------------------------
next            iter
jump            SELF loop
print "${kT}"
1000
variable        i equal ${irandom}
variable        i equal 23

# 0 for even, take away one to get lower layer
# !=0 for odd, add one to get upper layer
if		"${atomid} == 0" then                   "variable layeri equal ${loweri} "                 else                   "variable layeri equal ${upperi} "
variable layeri equal ${upperi} 
variable layeri equal 24 
variable        z0 equal ${zi}
variable        z0 equal 10.53
variable        y0 equal ${yi}
variable        y0 equal 2.106

variable 	zupdate equal ${znew}
variable 	zupdate equal 9.79322042942047
variable 	yupdate equal ${ynew}
variable 	yupdate equal 2.28260272121429

# ---------------- Update pair of atoms (columns)-----------------
set             atom $i z ${zupdate}
set             atom 23 z ${zupdate}
set             atom 23 z 9.79322042942047
  1 settings made for z
set             atom $i y ${yupdate}
set             atom 23 y ${yupdate}
set             atom 23 y 2.28260272121429
  1 settings made for y

set             atom ${layeri} z ${zupdate}
set             atom 24 z ${zupdate}
set             atom 24 z 9.79322042942047
  1 settings made for z
set             atom ${layeri} y ${yupdate}
set             atom 24 y ${yupdate}
set             atom 24 y 2.28260272121429
  1 settings made for y
#--------------------------------------------------------------
run             1 pre no post no
Step Temp E_pair E_mol TotEng Press 
      10            0   -1422.9583            0   -1422.9583    264142.51 
      11            0   -1433.4539            0   -1433.4539    245449.48 
Loop time of 0.00263786 on 1 procs for 1 steps with 72 atoms

151.6% CPU use with 1 MPI tasks x 1 OpenMP threads

#--------------------- Energy check ------------------------
if              "$e <= ${elast}" then                   "variable elast equal $e"                   "variable naccept equal ${increment}"                 elif "${rn} <= ${boltzfactor}"                   "variable elast equal $e"                   "variable naccept equal ${increment}"                 else                   "set atom $i z ${z0}"                   "set atom $i y ${y0}"                   "set atom ${layeri} z ${z0}"                   "set atom ${layeri} y ${y0}" #--------------------------------------------------------------
set atom $i z ${z0}
set atom 23 z ${z0}
set atom 23 z 10.53
  1 settings made for z
set atom $i y ${y0}
set atom 23 y ${y0}
set atom 23 y 2.106
  1 settings made for y
set atom ${layeri} z ${z0}
set atom 24 z ${z0}
set atom 24 z 10.53
  1 settings made for z
set atom ${layeri} y ${y0}
set atom 24 y ${y0}
set atom 24 y 2.106
  1 settings made for y
variable nmoves equal ${nmincrement}
variable nmoves equal 11

variable 	disordercounter equal ${disincrement}
variable 	disordercounter equal 11

# ------- To stop when sufficiently disordered, reset counters -------------

if		"${disordercounter} == ${disorder}" then 		"variable kT equal $T" 		"variable dismoves equal ${nmoves}" 		"variable disaccept equal ${naccept}" #--------------------------------------------------------------------------
next            iter
jump            SELF loop
print "${kT}"
1000
variable        i equal ${irandom}
variable        i equal 34

# 0 for even, take away one to get lower layer
# !=0 for odd, add one to get upper layer
if		"${atomid} == 0" then                   "variable layeri equal ${loweri} "                 else                   "variable layeri equal ${upperi} "
variable layeri equal ${loweri} 
variable layeri equal 33 
variable        z0 equal ${zi}
variable        z0 equal 8.424
variable        y0 equal ${yi}
variable        y0 equal 4.212

variable 	zupdate equal ${znew}
variable 	zupdate equal 7.67054638767242
variable 	yupdate equal ${ynew}
variable 	yupdate equal 3.79094229888916

# ---------------- Update pair of atoms (columns)-----------------
set             atom $i z ${zupdate}
set             atom 34 z ${zupdate}
set             atom 34 z 7.67054638767242
  1 settings made for z
set             atom $i y ${yupdate}
set             atom 34 y ${yupdate}
set             atom 34 y 3.79094229888916
  1 settings made for y

set             atom ${layeri} z ${zupdate}
set             atom 33 z ${zupdate}
set             atom 33 z 7.67054638767242
  1 settings made for z
set             atom ${layeri} y ${yupdate}
set             atom 33 y ${yupdate}
set             atom 33 y 3.79094229888916
  1 settings made for y
#--------------------------------------------------------------
run             1 pre no post no
Step Temp E_pair E_mol TotEng Press 
      11            0   -1433.4539            0   -1433.4539    245449.48 
      12            0   -1436.6202            0   -1436.6202    258668.02 
Loop time of 0.00194812 on 1 procs for 1 steps with 72 atoms

205.3% CPU use with 1 MPI tasks x 1 OpenMP threads

#--------------------- Energy check ------------------------
if              "$e <= ${elast}" then                   "variable elast equal $e"                   "variable naccept equal ${increment}"                 elif "${rn} <= ${boltzfactor}"                   "variable elast equal $e"                   "variable naccept equal ${increment}"                 else                   "set atom $i z ${z0}"                   "set atom $i y ${y0}"                   "set atom ${layeri} z ${z0}"                   "set atom ${layeri} y ${y0}" #--------------------------------------------------------------
set atom $i z ${z0}
set atom 34 z ${z0}
set atom 34 z 8.424
  1 settings made for z
set atom $i y ${y0}
set atom 34 y ${y0}
set atom 34 y 4.212
  1 settings made for y
set atom ${layeri} z ${z0}
set atom 33 z ${z0}
set atom 33 z 8.424
  1 settings made for z
set atom ${layeri} y ${y0}
set atom 33 y ${y0}
set atom 33 y 4.212
  1 settings made for y
variable nmoves equal ${nmincrement}
variable nmoves equal 12

variable 	disordercounter equal ${disincrement}
variable 	disordercounter equal 12

# ------- To stop when sufficiently disordered, reset counters -------------

if		"${disordercounter} == ${disorder}" then 		"variable kT equal $T" 		"variable dismoves equal ${nmoves}" 		"variable disaccept equal ${naccept}" #--------------------------------------------------------------------------
next            iter
jump            SELF loop
print "${kT}"
1000
variable        i equal ${irandom}
variable        i equal 31

# 0 for even, take away one to get lower layer
# !=0 for odd, add one to get upper layer
if		"${atomid} == 0" then                   "variable layeri equal ${loweri} "                 else                   "variable layeri equal ${upperi} "
variable layeri equal ${upperi} 
variable layeri equal 32 
variable        z0 equal ${zi}
variable        z0 equal 6.318
variable        y0 equal ${yi}
variable        y0 equal 4.212

variable 	zupdate equal ${znew}
variable 	zupdate equal 6.90365330505371
variable 	yupdate equal ${ynew}
variable 	yupdate equal 4.85954116535187

# ---------------- Update pair of atoms (columns)-----------------
set             atom $i z ${zupdate}
set             atom 31 z ${zupdate}
set             atom 31 z 6.90365330505371
  1 settings made for z
set             atom $i y ${yupdate}
set             atom 31 y ${yupdate}
set             atom 31 y 4.85954116535187
  1 settings made for y

set             atom ${layeri} z ${zupdate}
set             atom 32 z ${zupdate}
set             atom 32 z 6.90365330505371
  1 settings made for z
set             atom ${layeri} y ${yupdate}
set             atom 32 y ${yupdate}
set             atom 32 y 4.85954116535187
  1 settings made for y
#--------------------------------------------------------------
run             1 pre no post no
Step Temp E_pair E_mol TotEng Press 
      12            0   -1436.6202            0   -1436.6202    258668.02 
      13            0   -1437.5549            0   -1437.5549    253790.36 
Loop time of 0.00195217 on 1 procs for 1 steps with 72 atoms

0.0% CPU use with 1 MPI tasks x 1 OpenMP threads

#--------------------- Energy check ------------------------
if              "$e <= ${elast}" then                   "variable elast equal $e"                   "variable naccept equal ${increment}"                 elif "${rn} <= ${boltzfactor}"                   "variable elast equal $e"                   "variable naccept equal ${increment}"                 else                   "set atom $i z ${z0}"                   "set atom $i y ${y0}"                   "set atom ${layeri} z ${z0}"                   "set atom ${layeri} y ${y0}" #--------------------------------------------------------------
set atom $i z ${z0}
set atom 31 z ${z0}
set atom 31 z 6.318
  1 settings made for z
set atom $i y ${y0}
set atom 31 y ${y0}
set atom 31 y 4.212
  1 settings made for y
set atom ${layeri} z ${z0}
set atom 32 z ${z0}
set atom 32 z 6.318
  1 settings made for z
set atom ${layeri} y ${y0}
set atom 32 y ${y0}
set atom 32 y 4.212
  1 settings made for y
variable nmoves equal ${nmincrement}
variable nmoves equal 13

variable 	disordercounter equal ${disincrement}
variable 	disordercounter equal 13

# ------- To stop when sufficiently disordered, reset counters -------------

if		"${disordercounter} == ${disorder}" then 		"variable kT equal $T" 		"variable dismoves equal ${nmoves}" 		"variable disaccept equal ${naccept}" #--------------------------------------------------------------------------
next            iter
jump            SELF loop
print "${kT}"
1000
variable        i equal ${irandom}
variable        i equal 12

# 0 for even, take away one to get lower layer
# !=0 for odd, add one to get upper layer
if		"${atomid} == 0" then                   "variable layeri equal ${loweri} "                 else                   "variable layeri equal ${upperi} "
variable layeri equal ${loweri} 
variable layeri equal 11 
variable        z0 equal ${zi}
variable        z0 equal 10.53
variable        y0 equal ${yi}
variable        y0 equal 0

variable 	zupdate equal ${znew}
variable 	zupdate equal 10.882835059166
variable 	yupdate equal ${ynew}
variable 	yupdate equal -0.556793570518494

# ---------------- Update pair of atoms (columns)-----------------
set             atom $i z ${zupdate}
set             atom 12 z ${zupdate}
set             atom 12 z 10.882835059166
  1 settings made for z
set             atom $i y ${yupdate}
set             atom 12 y ${yupdate}
set             atom 12 y -0.556793570518494
  1 settings made for y

set             atom ${layeri} z ${zupdate}
set             atom 11 z ${zupdate}
set             atom 11 z 10.882835059166
  1 settings made for z
set             atom ${layeri} y ${yupdate}
set             atom 11 y ${yupdate}
set             atom 11 y -0.556793570518494
  1 settings made for y
#--------------------------------------------------------------
run             1 pre no post no
Step Temp E_pair E_mol TotEng Press 
      13            0   -1437.5549            0   -1437.5549    253790.36 
      14            0   -1441.1504            0   -1441.1504    224835.33 
Loop time of 0.00194287 on 1 procs for 1 steps with 72 atoms

0.0% CPU use with 1 MPI tasks x 1 OpenMP threads

#--------------------- Energy check ------------------------
if              "$e <= ${elast}" then                   "variable elast equal $e"                   "variable naccept equal ${increment}"                 elif "${rn} <= ${boltzfactor}"                   "variable elast equal $e"                   "variable naccept equal ${increment}"                 else                   "set atom $i z ${z0}"                   "set atom $i y ${y0}"                   "set atom ${layeri} z ${z0}"                   "set atom ${layeri} y ${y0}" #--------------------------------------------------------------
set atom $i z ${z0}
set atom 12 z ${z0}
set atom 12 z 10.53
  1 settings made for z
set atom $i y ${y0}
set atom 12 y ${y0}
set atom 12 y 0
  1 settings made for y
set atom ${layeri} z ${z0}
set atom 11 z ${z0}
set atom 11 z 10.53
  1 settings made for z
set atom ${layeri} y ${y0}
set atom 11 y ${y0}
set atom 11 y 0
  1 settings made for y
variable nmoves equal ${nmincrement}
variable nmoves equal 14

variable 	disordercounter equal ${disincrement}
variable 	disordercounter equal 14

# ------- To stop when sufficiently disordered, reset counters -------------

if		"${disordercounter} == ${disorder}" then 		"variable kT equal $T" 		"variable dismoves equal ${nmoves}" 		"variable disaccept equal ${naccept}" #--------------------------------------------------------------------------
next            iter
jump            SELF loop
print "${kT}"
1000
variable        i equal ${irandom}
variable        i equal 5

# 0 for even, take away one to get lower layer
# !=0 for odd, add one to get upper layer
if		"${atomid} == 0" then                   "variable layeri equal ${loweri} "                 else                   "variable layeri equal ${upperi} "
variable layeri equal ${upperi} 
variable layeri equal 6 
variable        z0 equal ${zi}
variable        z0 equal 4.212
variable        y0 equal ${yi}
variable        y0 equal 0

variable 	zupdate equal ${znew}
variable 	zupdate equal 3.78904484462738
variable 	yupdate equal ${ynew}
variable 	yupdate equal 0.0241801738739014

# ---------------- Update pair of atoms (columns)-----------------
set             atom $i z ${zupdate}
set             atom 5 z ${zupdate}
set             atom 5 z 3.78904484462738
  1 settings made for z
set             atom $i y ${yupdate}
set             atom 5 y ${yupdate}
set             atom 5 y 0.0241801738739014
  1 settings made for y

set             atom ${layeri} z ${zupdate}
set             atom 6 z ${zupdate}
set             atom 6 z 3.78904484462738
  1 settings made for z
set             atom ${layeri} y ${yupdate}
set             atom 6 y ${yupdate}
set             atom 6 y 0.0241801738739014
  1 settings made for y
#--------------------------------------------------------------
run             1 pre no post no
Step Temp E_pair E_mol TotEng Press 
      14            0   -1441.1504            0   -1441.1504    224835.33 
      15            0   -1443.7931            0   -1443.7931    207836.07 
Loop time of 0.00196719 on 1 procs for 1 steps with 72 atoms

0.0% CPU use with 1 MPI tasks x 1 OpenMP threads

#--------------------- Energy check ------------------------
if              "$e <= ${elast}" then                   "variable elast equal $e"                   "variable naccept equal ${increment}"                 elif "${rn} <= ${boltzfactor}"                   "variable elast equal $e"                   "variable naccept equal ${increment}"                 else                   "set atom $i z ${z0}"                   "set atom $i y ${y0}"                   "set atom ${layeri} z ${z0}"                   "set atom ${layeri} y ${y0}" #--------------------------------------------------------------
variable elast equal $e
variable elast equal -1443.79307217755
variable naccept equal ${increment}
variable naccept equal 5
variable nmoves equal ${nmincrement}
variable nmoves equal 15

variable 	disordercounter equal ${disincrement}
variable 	disordercounter equal 15

# ------- To stop when sufficiently disordered, reset counters -------------

if		"${disordercounter} == ${disorder}" then 		"variable kT equal $T" 		"variable dismoves equal ${nmoves}" 		"variable disaccept equal ${naccept}" #--------------------------------------------------------------------------
next            iter
jump            SELF loop
print "${kT}"
1000
variable        i equal ${irandom}
variable        i equal 5

# 0 for even, take away one to get lower layer
# !=0 for odd, add one to get upper layer
if		"${atomid} == 0" then                   "variable layeri equal ${loweri} "                 else                   "variable layeri equal ${upperi} "
variable layeri equal ${upperi} 
variable layeri equal 6 
variable        z0 equal ${zi}
variable        z0 equal 3.78904484462738
variable        y0 equal ${yi}
variable        y0 equal 0.0241801738739014

variable 	zupdate equal ${znew}
variable 	zupdate equal 4.55871282768249
variable 	yupdate equal ${ynew}
variable 	yupdate equal -0.206677436828613

# ---------------- Update pair of atoms (columns)-----------------
set             atom $i z ${zupdate}
set             atom 5 z ${zupdate}
set             atom 5 z 4.55871282768249
  1 settings made for z
set             atom $i y ${yupdate}
set             atom 5 y ${yupdate}
set             atom 5 y -0.206677436828613
  1 settings made for y

set             atom ${layeri} z ${zupdate}
set             atom 6 z ${zupdate}
set             atom 6 z 4.55871282768249
  1 settings made for z
set             atom ${layeri} y ${yupdate}
set             atom 6 y ${yupdate}
set             atom 6 y -0.206677436828613
  1 settings made for y
#--------------------------------------------------------------
run             1 pre no post no
Step Temp E_pair E_mol TotEng Press 
      15            0   -1443.7931            0   -1443.7931    207836.07 
      16            0   -1444.1328            0   -1444.1328    205091.69 
Loop time of 0.00194693 on 1 procs for 1 steps with 72 atoms

205.5% CPU use with 1 MPI tasks x 1 OpenMP threads

#--------------------- Energy check ------------------------
if              "$e <= ${elast}" then                   "variable elast equal $e"                   "variable naccept equal ${increment}"                 elif "${rn} <= ${boltzfactor}"                   "variable elast equal $e"                   "variable naccept equal ${increment}"                 else                   "set atom $i z ${z0}"                   "set atom $i y ${y0}"                   "set atom ${layeri} z ${z0}"                   "set atom ${layeri} y ${y0}" #--------------------------------------------------------------
variable elast equal $e
variable elast equal -1444.13284715679
variable naccept equal ${increment}
variable naccept equal 6
variable nmoves equal ${nmincrement}
variable nmoves equal 16

variable 	disordercounter equal ${disincrement}
variable 	disordercounter equal 16

# ------- To stop when sufficiently disordered, reset counters -------------

if		"${disordercounter} == ${disorder}" then 		"variable kT equal $T" 		"variable dismoves equal ${nmoves}" 		"variable disaccept equal ${naccept}" #--------------------------------------------------------------------------
next            iter
jump            SELF loop
print "${kT}"
1000
variable        i equal ${irandom}
variable        i equal 33

# 0 for even, take away one to get lower layer
# !=0 for odd, add one to get upper layer
if		"${atomid} == 0" then                   "variable layeri equal ${loweri} "                 else                   "variable layeri equal ${upperi} "
variable layeri equal ${upperi} 
variable layeri equal 34 
variable        z0 equal ${zi}
variable        z0 equal 8.424
variable        y0 equal ${yi}
variable        y0 equal 4.212

variable 	zupdate equal ${znew}
variable 	zupdate equal 8.77886793518066
variable 	yupdate equal ${ynew}
variable 	yupdate equal 4.37035654735565

# ---------------- Update pair of atoms (columns)-----------------
set             atom $i z ${zupdate}
set             atom 33 z ${zupdate}
set             atom 33 z 8.77886793518066
  1 settings made for z
set             atom $i y ${yupdate}
set             atom 33 y ${yupdate}
set             atom 33 y 4.37035654735565
  1 settings made for y

set             atom ${layeri} z ${zupdate}
set             atom 34 z ${zupdate}
set             atom 34 z 8.77886793518066
  1 settings made for z
set             atom ${layeri} y ${yupdate}
set             atom 34 y ${yupdate}
set             atom 34 y 4.37035654735565
  1 settings made for y
#--------------------------------------------------------------
run             1 pre no post no
Step Temp E_pair E_mol TotEng Press 
      16            0   -1444.1328            0   -1444.1328    205091.69 
      17            0   -1443.0824            0   -1443.0824    204800.91 
Loop time of 0.00194597 on 1 procs for 1 steps with 72 atoms

205.6% CPU use with 1 MPI tasks x 1 OpenMP threads

#--------------------- Energy check ------------------------
if              "$e <= ${elast}" then                   "variable elast equal $e"                   "variable naccept equal ${increment}"                 elif "${rn} <= ${boltzfactor}"                   "variable elast equal $e"                   "variable naccept equal ${increment}"                 else                   "set atom $i z ${z0}"                   "set atom $i y ${y0}"                   "set atom ${layeri} z ${z0}"                   "set atom ${layeri} y ${y0}" #--------------------------------------------------------------
variable elast equal $e
variable elast equal -1443.08238069691
variable naccept equal ${increment}
variable naccept equal 7
variable nmoves equal ${nmincrement}
variable nmoves equal 17

variable 	disordercounter equal ${disincrement}
variable 	disordercounter equal 17

# ------- To stop when sufficiently disordered, reset counters -------------

if		"${disordercounter} == ${disorder}" then 		"variable kT equal $T" 		"variable dismoves equal ${nmoves}" 		"variable disaccept equal ${naccept}" #--------------------------------------------------------------------------
next            iter
jump            SELF loop
print "${kT}"
1000
variable        i equal ${irandom}
variable        i equal 51

# 0 for even, take away one to get lower layer
# !=0 for odd, add one to get upper layer
if		"${atomid} == 0" then                   "variable layeri equal ${loweri} "                 else                   "variable layeri equal ${upperi} "
variable layeri equal ${upperi} 
variable layeri equal 52 
variable        z0 equal ${zi}
variable        z0 equal 2.106
variable        y0 equal ${yi}
variable        y0 equal 8.424

variable 	zupdate equal ${znew}
variable 	zupdate equal 2.95117514705658
variable 	yupdate equal ${ynew}
variable 	yupdate equal 9.29745957756042

# ---------------- Update pair of atoms (columns)-----------------
set             atom $i z ${zupdate}
set             atom 51 z ${zupdate}
set             atom 51 z 2.95117514705658
  1 settings made for z
set             atom $i y ${yupdate}
set             atom 51 y ${yupdate}
set             atom 51 y 9.29745957756042
  1 settings made for y

set             atom ${layeri} z ${zupdate}
set             atom 52 z ${zupdate}
set             atom 52 z 2.95117514705658
  1 settings made for z
set             atom ${layeri} y ${yupdate}
set             atom 52 y ${yupdate}
set             atom 52 y 9.29745957756042
  1 settings made for y
#--------------------------------------------------------------
run             1 pre no post no
Step Temp E_pair E_mol TotEng Press 
      17            0   -1443.0824            0   -1443.0824    204800.91 
      18            0    -1421.681            0    -1421.681    302544.52 
Loop time of 0.00266981 on 1 procs for 1 steps with 72 atoms

149.8% CPU use with 1 MPI tasks x 1 OpenMP threads

#--------------------- Energy check ------------------------
if              "$e <= ${elast}" then                   "variable elast equal $e"                   "variable naccept equal ${increment}"                 elif "${rn} <= ${boltzfactor}"                   "variable elast equal $e"                   "variable naccept equal ${increment}"                 else                   "set atom $i z ${z0}"                   "set atom $i y ${y0}"                   "set atom ${layeri} z ${z0}"                   "set atom ${layeri} y ${y0}" #--------------------------------------------------------------
set atom $i z ${z0}
set atom 51 z ${z0}
set atom 51 z 2.106
  1 settings made for z
set atom $i y ${y0}
set atom 51 y ${y0}
set atom 51 y 8.424
  1 settings made for y
set atom ${layeri} z ${z0}
set atom 52 z ${z0}
set atom 52 z 2.106
  1 settings made for z
set atom ${layeri} y ${y0}
set atom 52 y ${y0}
set atom 52 y 8.424
  1 settings made for y
variable nmoves equal ${nmincrement}
variable nmoves equal 18

variable 	disordercounter equal ${disincrement}
variable 	disordercounter equal 18

# ------- To stop when sufficiently disordered, reset counters -------------

if		"${disordercounter} == ${disorder}" then 		"variable kT equal $T" 		"variable dismoves equal ${nmoves}" 		"variable disaccept equal ${naccept}" #--------------------------------------------------------------------------
next            iter
jump            SELF loop
print "${kT}"
1000
variable        i equal ${irandom}
variable        i equal 70

# 0 for even, take away one to get lower layer
# !=0 for odd, add one to get upper layer
if		"${atomid} == 0" then                   "variable layeri equal ${loweri} "                 else                   "variable layeri equal ${upperi} "
variable layeri equal ${loweri} 
variable layeri equal 69 
variable        z0 equal ${zi}
variable        z0 equal 8.424
variable        y0 equal ${yi}
variable        y0 equal 10.53

variable 	zupdate equal ${znew}
variable 	zupdate equal 8.92147538566589
variable 	yupdate equal ${ynew}
variable 	yupdate equal 11.3385150718689

# ---------------- Update pair of atoms (columns)-----------------
set             atom $i z ${zupdate}
set             atom 70 z ${zupdate}
set             atom 70 z 8.92147538566589
  1 settings made for z
set             atom $i y ${yupdate}
set             atom 70 y ${yupdate}
set             atom 70 y 11.3385150718689
  1 settings made for y

set             atom ${layeri} z ${zupdate}
set             atom 69 z ${zupdate}
set             atom 69 z 8.92147538566589
  1 settings made for z
set             atom ${layeri} y ${yupdate}
set             atom 69 y ${yupdate}
set             atom 69 y 11.3385150718689
  1 settings made for y
#--------------------------------------------------------------
run             1 pre no post no
Step Temp E_pair E_mol TotEng Press 
      18            0    -1421.681            0    -1421.681    302544.52 
      19            0   -1428.0829            0   -1428.0829    278995.33 
Loop time of 0.00264597 on 1 procs for 1 steps with 72 atoms

151.2% CPU use with 1 MPI tasks x 1 OpenMP threads

#--------------------- Energy check ------------------------
if              "$e <= ${elast}" then                   "variable elast equal $e"                   "variable naccept equal ${increment}"                 elif "${rn} <= ${boltzfactor}"                   "variable elast equal $e"                   "variable naccept equal ${increment}"                 else                   "set atom $i z ${z0}"                   "set atom $i y ${y0}"                   "set atom ${layeri} z ${z0}"                   "set atom ${layeri} y ${y0}" #--------------------------------------------------------------
variable elast equal $e
variable elast equal -1428.08294272447
variable naccept equal ${increment}
variable naccept equal 8
variable nmoves equal ${nmincrement}
variable nmoves equal 19

variable 	disordercounter equal ${disincrement}
variable 	disordercounter equal 19

# ------- To stop when sufficiently disordered, reset counters -------------

if		"${disordercounter} == ${disorder}" then 		"variable kT equal $T" 		"variable dismoves equal ${nmoves}" 		"variable disaccept equal ${naccept}" #--------------------------------------------------------------------------
next            iter
jump            SELF loop
print "${kT}"
1000
variable        i equal ${irandom}
variable        i equal 28

# 0 for even, take away one to get lower layer
# !=0 for odd, add one to get upper layer
if		"${atomid} == 0" then                   "variable layeri equal ${loweri} "                 else                   "variable layeri equal ${upperi} "
variable layeri equal ${loweri} 
variable layeri equal 27 
variable        z0 equal ${zi}
variable        z0 equal 2.106
variable        y0 equal ${yi}
variable        y0 equal 4.212

variable 	zupdate equal ${znew}
variable 	zupdate equal 1.73202376937866
variable 	yupdate equal ${ynew}
variable 	yupdate equal 3.80737780284882

# ---------------- Update pair of atoms (columns)-----------------
set             atom $i z ${zupdate}
set             atom 28 z ${zupdate}
set             atom 28 z 1.73202376937866
  1 settings made for z
set             atom $i y ${yupdate}
set             atom 28 y ${yupdate}
set             atom 28 y 3.80737780284882
  1 settings made for y

set             atom ${layeri} z ${zupdate}
set             atom 27 z ${zupdate}
set             atom 27 z 1.73202376937866
  1 settings made for z
set             atom ${layeri} y ${yupdate}
set             atom 27 y ${yupdate}
set             atom 27 y 3.80737780284882
  1 settings made for y
#--------------------------------------------------------------
run             1 pre no post no
Step Temp E_pair E_mol TotEng Press 
      19            0   -1428.0829            0   -1428.0829    278995.33 
      20            0    -1426.594            0    -1426.594    298881.64 
Loop time of 0.00196195 on 1 procs for 1 steps with 72 atoms

0.0% CPU use with 1 MPI tasks x 1 OpenMP threads

#--------------------- Energy check ------------------------
if              "$e <= ${elast}" then                   "variable elast equal $e"                   "variable naccept equal ${increment}"                 elif "${rn} <= ${boltzfactor}"                   "variable elast equal $e"                   "variable naccept equal ${increment}"                 else                   "set atom $i z ${z0}"                   "set atom $i y ${y0}"                   "set atom ${layeri} z ${z0}"                   "set atom ${layeri} y ${y0}" #--------------------------------------------------------------
variable elast equal $e
variable elast equal -1426.59396979801
variable naccept equal ${increment}
variable naccept equal 9
variable nmoves equal ${nmincrement}
variable nmoves equal 20

variable 	disordercounter equal ${disincrement}
variable 	disordercounter equal 20

# ------- To stop when sufficiently disordered, reset counters -------------

if		"${disordercounter} == ${disorder}" then 		"variable kT equal $T" 		"variable dismoves equal ${nmoves}" 		"variable disaccept equal ${naccept}" #--------------------------------------------------------------------------
next            iter
jump            SELF loop
print "${kT}"
1000
variable        i equal ${irandom}
variable        i equal 62

# 0 for even, take away one to get lower layer
# !=0 for odd, add one to get upper layer
if		"${atomid} == 0" then                   "variable layeri equal ${loweri} "                 else                   "variable layeri equal ${upperi} "
variable layeri equal ${loweri} 
variable layeri equal 61 
variable        z0 equal ${zi}
variable        z0 equal 0
variable        y0 equal ${yi}
variable        y0 equal 10.53

variable 	zupdate equal ${znew}
variable 	zupdate equal -0.862976789474487
variable 	yupdate equal ${ynew}
variable 	yupdate equal 10.8174072790146

# ---------------- Update pair of atoms (columns)-----------------
set             atom $i z ${zupdate}
set             atom 62 z ${zupdate}
set             atom 62 z -0.862976789474487
  1 settings made for z
set             atom $i y ${yupdate}
set             atom 62 y ${yupdate}
set             atom 62 y 10.8174072790146
  1 settings made for y

set             atom ${layeri} z ${zupdate}
set             atom 61 z ${zupdate}
set             atom 61 z -0.862976789474487
  1 settings made for z
set             atom ${layeri} y ${yupdate}
set             atom 61 y ${yupdate}
set             atom 61 y 10.8174072790146
  1 settings made for y
#--------------------------------------------------------------
run             1 pre no post no
Step Temp E_pair E_mol TotEng Press 
      20            0    -1426.594            0    -1426.594    298881.64 
      21            0   -1405.7989            0   -1405.7989    388591.87 
Loop time of 0.00194812 on 1 procs for 1 steps with 72 atoms

0.0% CPU use with 1 MPI tasks x 1 OpenMP threads

#--------------------- Energy check ------------------------
if              "$e <= ${elast}" then                   "variable elast equal $e"                   "variable naccept equal ${increment}"                 elif "${rn} <= ${boltzfactor}"                   "variable elast equal $e"                   "variable naccept equal ${increment}"                 else                   "set atom $i z ${z0}"                   "set atom $i y ${y0}"                   "set atom ${layeri} z ${z0}"                   "set atom ${layeri} y ${y0}" #--------------------------------------------------------------
variable elast equal $e
variable elast equal -1405.7989127393
variable naccept equal ${increment}
variable naccept equal 10
variable nmoves equal ${nmincrement}
variable nmoves equal 21

variable 	disordercounter equal ${disincrement}
variable 	disordercounter equal 21

# ------- To stop when sufficiently disordered, reset counters -------------

if		"${disordercounter} == ${disorder}" then 		"variable kT equal $T" 		"variable dismoves equal ${nmoves}" 		"variable disaccept equal ${naccept}" #--------------------------------------------------------------------------
next            iter
jump            SELF loop
print "${kT}"
1000
variable        i equal ${irandom}
variable        i equal 52

# 0 for even, take away one to get lower layer
# !=0 for odd, add one to get upper layer
if		"${atomid} == 0" then                   "variable layeri equal ${loweri} "                 else                   "variable layeri equal ${upperi} "
variable layeri equal ${loweri} 
variable layeri equal 51 
variable        z0 equal ${zi}
variable        z0 equal 2.106
variable        y0 equal ${yi}
variable        y0 equal 8.424

variable 	zupdate equal ${znew}
variable 	zupdate equal 1.85312455272675
variable 	yupdate equal ${ynew}
variable 	yupdate equal 9.34365806484222

# ---------------- Update pair of atoms (columns)-----------------
set             atom $i z ${zupdate}
set             atom 52 z ${zupdate}
set             atom 52 z 1.85312455272675
  1 settings made for z
set             atom $i y ${yupdate}
set             atom 52 y ${yupdate}
set             atom 52 y 9.34365806484222
  1 settings made for y

set             atom ${layeri} z ${zupdate}
set             atom 51 z ${zupdate}
set             atom 51 z 1.85312455272675
  1 settings made for z
set             atom ${layeri} y ${yupdate}
set             atom 51 y ${yupdate}
set             atom 51 y 9.34365806484222
  1 settings made for y
#--------------------------------------------------------------
run             1 pre no post no
Step Temp E_pair E_mol TotEng Press 
      21            0   -1405.7989            0   -1405.7989    388591.87 
      22            0   -1384.0379            0   -1384.0379    488604.81 
Loop time of 0.00194311 on 1 procs for 1 steps with 72 atoms

0.0% CPU use with 1 MPI tasks x 1 OpenMP threads

#--------------------- Energy check ------------------------
if              "$e <= ${elast}" then                   "variable elast equal $e"                   "variable naccept equal ${increment}"                 elif "${rn} <= ${boltzfactor}"                   "variable elast equal $e"                   "variable naccept equal ${increment}"                 else                   "set atom $i z ${z0}"                   "set atom $i y ${y0}"                   "set atom ${layeri} z ${z0}"                   "set atom ${layeri} y ${y0}" #--------------------------------------------------------------
set atom $i z ${z0}
set atom 52 z ${z0}
set atom 52 z 2.106
  1 settings made for z
set atom $i y ${y0}
set atom 52 y ${y0}
set atom 52 y 8.424
  1 settings made for y
set atom ${layeri} z ${z0}
set atom 51 z ${z0}
set atom 51 z 2.106
  1 settings made for z
set atom ${layeri} y ${y0}
set atom 51 y ${y0}
set atom 51 y 8.424
  1 settings made for y
variable nmoves equal ${nmincrement}
variable nmoves equal 22

variable 	disordercounter equal ${disincrement}
variable 	disordercounter equal 22

# ------- To stop when sufficiently disordered, reset counters -------------

if		"${disordercounter} == ${disorder}" then 		"variable kT equal $T" 		"variable dismoves equal ${nmoves}" 		"variable disaccept equal ${naccept}" #--------------------------------------------------------------------------
next            iter
jump            SELF loop
print "${kT}"
1000
variable        i equal ${irandom}
variable        i equal 51

# 0 for even, take away one to get lower layer
# !=0 for odd, add one to get upper layer
if		"${atomid} == 0" then                   "variable layeri equal ${loweri} "                 else                   "variable layeri equal ${upperi} "
variable layeri equal ${upperi} 
variable layeri equal 52 
variable        z0 equal ${zi}
variable        z0 equal 2.106
variable        y0 equal ${yi}
variable        y0 equal 8.424

variable 	zupdate equal ${znew}
variable 	zupdate equal 2.01733403778076
variable 	yupdate equal ${ynew}
variable 	yupdate equal 7.4505839099884

# ---------------- Update pair of atoms (columns)-----------------
set             atom $i z ${zupdate}
set             atom 51 z ${zupdate}
set             atom 51 z 2.01733403778076
  1 settings made for z
set             atom $i y ${yupdate}
set             atom 51 y ${yupdate}
set             atom 51 y 7.4505839099884
  1 settings made for y

set             atom ${layeri} z ${zupdate}
set             atom 52 z ${zupdate}
set             atom 52 z 2.01733403778076
  1 settings made for z
set             atom ${layeri} y ${yupdate}
set             atom 52 y ${yupdate}
set             atom 52 y 7.4505839099884
  1 settings made for y
#--------------------------------------------------------------
run             1 pre no post no
Step Temp E_pair E_mol TotEng Press 
      22            0   -1384.0379            0   -1384.0379    488604.81 
      23            0   -1371.5631            0   -1371.5631    518537.96 
Loop time of 0.00193691 on 1 procs for 1 steps with 72 atoms

206.5% CPU use with 1 MPI tasks x 1 OpenMP threads

#--------------------- Energy check ------------------------
if              "$e <= ${elast}" then                   "variable elast equal $e"                   "variable naccept equal ${increment}"                 elif "${rn} <= ${boltzfactor}"                   "variable elast equal $e"                   "variable naccept equal ${increment}"                 else                   "set atom $i z ${z0}"                   "set atom $i y ${y0}"                   "set atom ${layeri} z ${z0}"                   "set atom ${layeri} y ${y0}" #--------------------------------------------------------------
set atom $i z ${z0}
set atom 51 z ${z0}
set atom 51 z 2.106
  1 settings made for z
set atom $i y ${y0}
set atom 51 y ${y0}
set atom 51 y 8.424
  1 settings made for y
set atom ${layeri} z ${z0}
set atom 52 z ${z0}
set atom 52 z 2.106
  1 settings made for z
set atom ${layeri} y ${y0}
set atom 52 y ${y0}
set atom 52 y 8.424
  1 settings made for y
variable nmoves equal ${nmincrement}
variable nmoves equal 23

variable 	disordercounter equal ${disincrement}
variable 	disordercounter equal 23

# ------- To stop when sufficiently disordered, reset counters -------------

if		"${disordercounter} == ${disorder}" then 		"variable kT equal $T" 		"variable dismoves equal ${nmoves}" 		"variable disaccept equal ${naccept}" #--------------------------------------------------------------------------
next            iter
jump            SELF loop
print "${kT}"
1000
variable        i equal ${irandom}
variable        i equal 18

# 0 for even, take away one to get lower layer
# !=0 for odd, add one to get upper layer
if		"${atomid} == 0" then                   "variable layeri equal ${loweri} "                 else                   "variable layeri equal ${upperi} "
variable layeri equal ${loweri} 
variable layeri equal 17 
variable        z0 equal ${zi}
variable        z0 equal 4.212
variable        y0 equal ${yi}
variable        y0 equal 2.106

variable 	zupdate equal ${znew}
variable 	zupdate equal 3.85646747303009
variable 	yupdate equal ${ynew}
variable 	yupdate equal 2.62401633834839

# ---------------- Update pair of atoms (columns)-----------------
set             atom $i z ${zupdate}
set             atom 18 z ${zupdate}
set             atom 18 z 3.85646747303009
  1 settings made for z
set             atom $i y ${yupdate}
set             atom 18 y ${yupdate}
set             atom 18 y 2.62401633834839
  1 settings made for y

set             atom ${layeri} z ${zupdate}
set             atom 17 z ${zupdate}
set             atom 17 z 3.85646747303009
  1 settings made for z
set             atom ${layeri} y ${yupdate}
set             atom 17 y ${yupdate}
set             atom 17 y 2.62401633834839
  1 settings made for y
#--------------------------------------------------------------
run             1 pre no post no
Step Temp E_pair E_mol TotEng Press 
      23            0   -1371.5631            0   -1371.5631    518537.96 
      24            0   -1401.7437            0   -1401.7437    428438.51 
Loop time of 0.00193596 on 1 procs for 1 steps with 72 atoms

206.6% CPU use with 1 MPI tasks x 1 OpenMP threads

#--------------------- Energy check ------------------------
[...]
Loop time of 0.00191712 on 1 procs for 1 steps with 72 atoms

0.0% CPU use with 1 MPI tasks x 1 OpenMP threads

#--------------------- Energy check ------------------------
if              "$e <= ${elast}" then                   "variable elast equal $e"                   "variable naccept equal ${increment}"                 elif "${rn} <= ${boltzfactor}"                   "variable elast equal $e"                   "variable naccept equal ${increment}"                 else                   "set atom $i z ${z0}"                   "set atom $i y ${y0}"                   "set atom ${layeri} z ${z0}"                   "set atom ${layeri} y ${y0}" #--------------------------------------------------------------
set atom $i z ${z0}
set atom 60 z ${z0}
set atom 60 z 10.7477187204361
  1 settings made for z
set atom $i y ${y0}
set atom 60 y ${y0}
set atom 60 y 8.88037369155882
  1 settings made for y
set atom ${layeri} z ${z0}
set atom 59 z ${z0}
set atom 59 z 10.7477187204361
  1 settings made for z
set atom ${layeri} y ${y0}
set atom 59 y ${y0}
set atom 59 y 8.88037369155882
  1 settings made for y
variable nmoves equal ${nmincrement}
variable nmoves equal 995

variable 	disordercounter equal ${disincrement}
variable 	disordercounter equal 995

# ------- To stop when sufficiently disordered, reset counters -------------

if		"${disordercounter} == ${disorder}" then 		"variable kT equal $T" 		"variable dismoves equal ${nmoves}" 		"variable disaccept equal ${naccept}" #--------------------------------------------------------------------------
next            iter
jump            SELF loop
print "${kT}"
1000
variable        i equal ${irandom}
variable        i equal 39

# 0 for even, take away one to get lower layer
# !=0 for odd, add one to get upper layer
if		"${atomid} == 0" then                   "variable layeri equal ${loweri} "                 else                   "variable layeri equal ${upperi} "
variable layeri equal ${upperi} 
variable layeri equal 40 
variable        z0 equal ${zi}
variable        z0 equal 3.93494873619082
variable        y0 equal ${yi}
variable        y0 equal 4.37708048152922

variable 	zupdate equal ${znew}
variable 	zupdate equal 4.55274527645114
variable 	yupdate equal ${ynew}
variable 	yupdate equal 5.35916988182066

# ---------------- Update pair of atoms (columns)-----------------
set             atom $i z ${zupdate}
set             atom 39 z ${zupdate}
set             atom 39 z 4.55274527645114
  1 settings made for z
set             atom $i y ${yupdate}
set             atom 39 y ${yupdate}
set             atom 39 y 5.35916988182066
  1 settings made for y

set             atom ${layeri} z ${zupdate}
set             atom 40 z ${zupdate}
set             atom 40 z 4.55274527645114
  1 settings made for z
set             atom ${layeri} y ${yupdate}
set             atom 40 y ${yupdate}
set             atom 40 y 5.35916988182066
  1 settings made for y
#--------------------------------------------------------------
run             1 pre no post no
Step Temp E_pair E_mol TotEng Press 
     995            0   -12812.133            0   -12812.133    -65065947 
     996            0   -5320246.1            0   -5320246.1 -2.5377633e+10 
Loop time of 0.00264192 on 1 procs for 1 steps with 72 atoms

0.0% CPU use with 1 MPI tasks x 1 OpenMP threads

#--------------------- Energy check ------------------------
if              "$e <= ${elast}" then                   "variable elast equal $e"                   "variable naccept equal ${increment}"                 elif "${rn} <= ${boltzfactor}"                   "variable elast equal $e"                   "variable naccept equal ${increment}"                 else                   "set atom $i z ${z0}"                   "set atom $i y ${y0}"                   "set atom ${layeri} z ${z0}"                   "set atom ${layeri} y ${y0}" #--------------------------------------------------------------
variable elast equal $e
variable elast equal -5320246.06806842
variable naccept equal ${increment}
variable naccept equal 426
variable nmoves equal ${nmincrement}
variable nmoves equal 996

variable 	disordercounter equal ${disincrement}
variable 	disordercounter equal 996

# ------- To stop when sufficiently disordered, reset counters -------------

if		"${disordercounter} == ${disorder}" then 		"variable kT equal $T" 		"variable dismoves equal ${nmoves}" 		"variable disaccept equal ${naccept}" #--------------------------------------------------------------------------
next            iter
jump            SELF loop
print "${kT}"
1000
variable        i equal ${irandom}
variable        i equal 49

# 0 for even, take away one to get lower layer
# !=0 for odd, add one to get upper layer
if		"${atomid} == 0" then                   "variable layeri equal ${loweri} "                 else                   "variable layeri equal ${upperi} "
variable layeri equal ${upperi} 
variable layeri equal 50 
variable        z0 equal ${zi}
variable        z0 equal 12.4178266153335
variable        y0 equal ${yi}
variable        y0 equal 9.44474694633485

variable 	zupdate equal ${znew}
variable 	zupdate equal 11.4310847148895
variable 	yupdate equal ${ynew}
variable 	yupdate equal 10.3849771966934

# ---------------- Update pair of atoms (columns)-----------------
set             atom $i z ${zupdate}
set             atom 49 z ${zupdate}
set             atom 49 z 11.4310847148895
  1 settings made for z
set             atom $i y ${yupdate}
set             atom 49 y ${yupdate}
set             atom 49 y 10.3849771966934
  1 settings made for y

set             atom ${layeri} z ${zupdate}
set             atom 50 z ${zupdate}
set             atom 50 z 11.4310847148895
  1 settings made for z
set             atom ${layeri} y ${yupdate}
set             atom 50 y ${yupdate}
set             atom 50 y 10.3849771966934
  1 settings made for y
#--------------------------------------------------------------
run             1 pre no post no
Step Temp E_pair E_mol TotEng Press 
     996            0   -5320246.1            0   -5320246.1 -2.5377633e+10 
     997            0   -5320014.4            0   -5320014.4 -2.5377135e+10 
Loop time of 0.00262499 on 1 procs for 1 steps with 72 atoms

0.0% CPU use with 1 MPI tasks x 1 OpenMP threads

#--------------------- Energy check ------------------------
if              "$e <= ${elast}" then                   "variable elast equal $e"                   "variable naccept equal ${increment}"                 elif "${rn} <= ${boltzfactor}"                   "variable elast equal $e"                   "variable naccept equal ${increment}"                 else                   "set atom $i z ${z0}"                   "set atom $i y ${y0}"                   "set atom ${layeri} z ${z0}"                   "set atom ${layeri} y ${y0}" #--------------------------------------------------------------
set atom $i z ${z0}
set atom 49 z ${z0}
set atom 49 z 12.4178266153335
  1 settings made for z
set atom $i y ${y0}
set atom 49 y ${y0}
set atom 49 y 9.44474694633485
  1 settings made for y
set atom ${layeri} z ${z0}
set atom 50 z ${z0}
set atom 50 z 12.4178266153335
  1 settings made for z
set atom ${layeri} y ${y0}
set atom 50 y ${y0}
set atom 50 y 9.44474694633485
  1 settings made for y
variable nmoves equal ${nmincrement}
variable nmoves equal 997

variable 	disordercounter equal ${disincrement}
variable 	disordercounter equal 997

# ------- To stop when sufficiently disordered, reset counters -------------

if		"${disordercounter} == ${disorder}" then 		"variable kT equal $T" 		"variable dismoves equal ${nmoves}" 		"variable disaccept equal ${naccept}" #--------------------------------------------------------------------------
next            iter
jump            SELF loop
print "${kT}"
1000
variable        i equal ${irandom}
variable        i equal 41

# 0 for even, take away one to get lower layer
# !=0 for odd, add one to get upper layer
if		"${atomid} == 0" then                   "variable layeri equal ${loweri} "                 else                   "variable layeri equal ${upperi} "
variable layeri equal ${upperi} 
variable layeri equal 42 
variable        z0 equal ${zi}
variable        z0 equal 3.25378631305694
variable        y0 equal ${yi}
variable        y0 equal 8.50173608589173

variable 	zupdate equal ${znew}
variable 	zupdate equal 3.08004270744323
variable 	yupdate equal ${ynew}
variable 	yupdate equal 7.61976329612733

# ---------------- Update pair of atoms (columns)-----------------
set             atom $i z ${zupdate}
set             atom 41 z ${zupdate}
set             atom 41 z 3.08004270744323
  1 settings made for z
set             atom $i y ${yupdate}
set             atom 41 y ${yupdate}
set             atom 41 y 7.61976329612733
  1 settings made for y

set             atom ${layeri} z ${zupdate}
set             atom 42 z ${zupdate}
set             atom 42 z 3.08004270744323
  1 settings made for z
set             atom ${layeri} y ${yupdate}
set             atom 42 y ${yupdate}
set             atom 42 y 7.61976329612733
  1 settings made for y
#--------------------------------------------------------------
run             1 pre no post no
Step Temp E_pair E_mol TotEng Press 
     997            0   -5320014.4            0   -5320014.4 -2.5377135e+10 
     998            0   -5320234.9            0   -5320234.9 -2.5377581e+10 
Loop time of 0.00263596 on 1 procs for 1 steps with 72 atoms

0.0% CPU use with 1 MPI tasks x 1 OpenMP threads

#--------------------- Energy check ------------------------
if              "$e <= ${elast}" then                   "variable elast equal $e"                   "variable naccept equal ${increment}"                 elif "${rn} <= ${boltzfactor}"                   "variable elast equal $e"                   "variable naccept equal ${increment}"                 else                   "set atom $i z ${z0}"                   "set atom $i y ${y0}"                   "set atom ${layeri} z ${z0}"                   "set atom ${layeri} y ${y0}" #--------------------------------------------------------------
variable elast equal $e
variable elast equal -5320234.87548466
variable naccept equal ${increment}
variable naccept equal 427
variable nmoves equal ${nmincrement}
variable nmoves equal 998

variable 	disordercounter equal ${disincrement}
variable 	disordercounter equal 998

# ------- To stop when sufficiently disordered, reset counters -------------

if		"${disordercounter} == ${disorder}" then 		"variable kT equal $T" 		"variable dismoves equal ${nmoves}" 		"variable disaccept equal ${naccept}" #--------------------------------------------------------------------------
next            iter
jump            SELF loop
print "${kT}"
1000
variable        i equal ${irandom}
variable        i equal 24

# 0 for even, take away one to get lower layer
# !=0 for odd, add one to get upper layer
if		"${atomid} == 0" then                   "variable layeri equal ${loweri} "                 else                   "variable layeri equal ${upperi} "
variable layeri equal ${loweri} 
variable layeri equal 23 
variable        z0 equal ${zi}
variable        z0 equal 10.6104772377013
variable        y0 equal ${yi}
variable        y0 equal 1.76298313713075

variable 	zupdate equal ${znew}
variable 	zupdate equal 10.5146073389052
variable 	yupdate equal ${ynew}
variable 	yupdate equal 0.905544811248792

# ---------------- Update pair of atoms (columns)-----------------
set             atom $i z ${zupdate}
set             atom 24 z ${zupdate}
set             atom 24 z 10.5146073389052
  1 settings made for z
set             atom $i y ${yupdate}
set             atom 24 y ${yupdate}
set             atom 24 y 0.905544811248792
  1 settings made for y

set             atom ${layeri} z ${zupdate}
set             atom 23 z ${zupdate}
set             atom 23 z 10.5146073389052
  1 settings made for z
set             atom ${layeri} y ${yupdate}
set             atom 23 y ${yupdate}
set             atom 23 y 0.905544811248792
  1 settings made for y
#--------------------------------------------------------------
run             1 pre no post no
Step Temp E_pair E_mol TotEng Press 
     998            0   -5320234.9            0   -5320234.9 -2.5377581e+10 
     999            0   -5320034.2            0   -5320034.2 -2.5377137e+10 
Loop time of 0.00191307 on 1 procs for 1 steps with 72 atoms

0.0% CPU use with 1 MPI tasks x 1 OpenMP threads

#--------------------- Energy check ------------------------
if              "$e <= ${elast}" then                   "variable elast equal $e"                   "variable naccept equal ${increment}"                 elif "${rn} <= ${boltzfactor}"                   "variable elast equal $e"                   "variable naccept equal ${increment}"                 else                   "set atom $i z ${z0}"                   "set atom $i y ${y0}"                   "set atom ${layeri} z ${z0}"                   "set atom ${layeri} y ${y0}" #--------------------------------------------------------------
set atom $i z ${z0}
set atom 24 z ${z0}
set atom 24 z 10.6104772377013
  1 settings made for z
set atom $i y ${y0}
set atom 24 y ${y0}
set atom 24 y 1.76298313713075
  1 settings made for y
set atom ${layeri} z ${z0}
set atom 23 z ${z0}
set atom 23 z 10.6104772377013
  1 settings made for z
set atom ${layeri} y ${y0}
set atom 23 y ${y0}
set atom 23 y 1.76298313713075
  1 settings made for y
variable nmoves equal ${nmincrement}
variable nmoves equal 999

variable 	disordercounter equal ${disincrement}
variable 	disordercounter equal 999

# ------- To stop when sufficiently disordered, reset counters -------------

if		"${disordercounter} == ${disorder}" then 		"variable kT equal $T" 		"variable dismoves equal ${nmoves}" 		"variable disaccept equal ${naccept}" #--------------------------------------------------------------------------
next            iter
jump            SELF loop
print "${kT}"
1000
variable        i equal ${irandom}
variable        i equal 66

# 0 for even, take away one to get lower layer
# !=0 for odd, add one to get upper layer
if		"${atomid} == 0" then                   "variable layeri equal ${loweri} "                 else                   "variable layeri equal ${upperi} "
variable layeri equal ${loweri} 
variable layeri equal 65 
variable        z0 equal ${zi}
variable        z0 equal 4.98063670349121
variable        y0 equal ${yi}
variable        y0 equal 10.6896813201904

variable 	zupdate equal ${znew}
variable 	zupdate equal 5.23588286590576
variable 	yupdate equal ${ynew}
variable 	yupdate equal 9.99553349494931

# ---------------- Update pair of atoms (columns)-----------------
set             atom $i z ${zupdate}
set             atom 66 z ${zupdate}
set             atom 66 z 5.23588286590576
  1 settings made for z
set             atom $i y ${yupdate}
set             atom 66 y ${yupdate}
set             atom 66 y 9.99553349494931
  1 settings made for y

set             atom ${layeri} z ${zupdate}
set             atom 65 z ${zupdate}
set             atom 65 z 5.23588286590576
  1 settings made for z
set             atom ${layeri} y ${yupdate}
set             atom 65 y ${yupdate}
set             atom 65 y 9.99553349494931
  1 settings made for y
#--------------------------------------------------------------
run             1 pre no post no
Step Temp E_pair E_mol TotEng Press 
     999            0   -5320034.2            0   -5320034.2 -2.5377137e+10 
    1000            0   -5320235.3            0   -5320235.3 -2.5377589e+10 
Loop time of 0.00190902 on 1 procs for 1 steps with 72 atoms

0.0% CPU use with 1 MPI tasks x 1 OpenMP threads

#--------------------- Energy check ------------------------
if              "$e <= ${elast}" then                   "variable elast equal $e"                   "variable naccept equal ${increment}"                 elif "${rn} <= ${boltzfactor}"                   "variable elast equal $e"                   "variable naccept equal ${increment}"                 else                   "set atom $i z ${z0}"                   "set atom $i y ${y0}"                   "set atom ${layeri} z ${z0}"                   "set atom ${layeri} y ${y0}" #--------------------------------------------------------------
variable elast equal $e
variable elast equal -5320235.27925764
variable naccept equal ${increment}
variable naccept equal 428
variable nmoves equal ${nmincrement}
variable nmoves equal 1000

variable 	disordercounter equal ${disincrement}
variable 	disordercounter equal 1000

# ------- To stop when sufficiently disordered, reset counters -------------

if		"${disordercounter} == ${disorder}" then 		"variable kT equal $T" 		"variable dismoves equal ${nmoves}" 		"variable disaccept equal ${naccept}" #--------------------------------------------------------------------------
variable kT equal $T
variable kT equal 0.025
variable dismoves equal ${nmoves}
variable dismoves equal 1000
variable disaccept equal ${naccept}
variable disaccept equal 428
next            iter
jump            SELF loop

# --------------------final energy and stats ---------------------------

variable       nb equal nbuild
variable       nbuild equal ${nb}
variable       nbuild equal 362
variable       totnmoves equal "v_nmoves - v_dismoves"
variable       totnaccept equal "v_naccept - v_disaccept"
variable       ratio equal "100*v_totnaccept/v_totnmoves"

run             0
WARNING: No fixes defined, atoms won't move (../verlet.cpp:55)
PPPM initialization ...
WARNING: Using polynomial approximation for long-range coulomb (../kspace.cpp:316)
  G vector (1/distance) = 0.400041
  grid = 8 15 15
  stencil order = 5
  estimated absolute RMS force accuracy = 0.000671313
  estimated relative force accuracy = 4.66201e-05
  using double precision FFTs
  3d grid and FFT values/proc = 8228 1800
Memory usage per processor = 4.7433 Mbytes
Step Temp E_pair E_mol TotEng Press 
    1000            0   -5320235.3            0   -5320235.3 -2.5377589e+10 
Loop time of 0 on 1 procs for 0 steps with 72 atoms

0.0% CPU use with 1 MPI tasks x 1 OpenMP threads

MPI task timing breakdown:
Section |  min time  |  avg time  |  max time  |%varavg| %total
---------------------------------------------------------------
Pair    | 0          | 0          | 0          |   0.0 |  0.00
Kspace  | 0          | 0          | 0          |   0.0 |  0.00
Neigh   | 0          | 0          | 0          |   0.0 |  0.00
Comm    | 0          | 0          | 0          |   0.0 |  0.00
Output  | 0          | 0          | 0          |   0.0 |  0.00
Modify  | 0          | 0          | 0          |   0.0 |  0.00
Other   |            | 0          |            |       |  0.00

Nlocal:    72 ave 72 max 72 min
Histogram: 1 0 0 0 0 0 0 0 0 0
Nghost:    2579 ave 2579 max 2579 min
Histogram: 1 0 0 0 0 0 0 0 0 0
Neighs:    16126 ave 16126 max 16126 min
Histogram: 1 0 0 0 0 0 0 0 0 0

Total # of neighbors = 16126
Ave neighs/atom = 223.972
Neighbor list builds = 0
Dangerous builds = 0
#-------------------------END OF MONTE CARLO------------------------
print ""

print           "MC stats:"
MC stats:
print           "  	neighbor list rebuilds = ${nbuild}"
  	neighbor list rebuilds = 362
print           "  	starting energy = ${estart}"
  	starting energy = -1481.42658366852
print           "  	final energy = $e"
  	final energy = -5320235.27925764
print           "  	minimum energy of perfect lattice = ${emin}"
  	minimum energy of perfect lattice = -1481.42658366852
print ""

print           "  Disordered accepted MC moves = ${disaccept}"
  Disordered accepted MC moves = 428
print 		"  Disordered total moves = ${dismoves}"
  Disordered total moves = 1000
print           "  accepted MC moves = ${totnaccept}"
  accepted MC moves = 0
print 		"  Total moves = ${totnmoves}"
  Total moves = 0
print 		"  	Ratio of accepted/Total = ${ratio} %"
ERROR: Divide by 0 in variable formula (../variable.cpp:2114)
