LAMMPS (18 Jun 2016-ICMS)
WARNING: OMP_NUM_THREADS environment is not set. (../comm.cpp:90)
  using 1 OpenMP thread(s) per MPI task
#---------------------------WELCOME----------------------------
print "Optimise lattice constant of MgO crystal"
Optimise lattice constant of MgO crystal

#--------------------INITIALISATION----------------------------
units metal		#distance in A and energy in eV
atom_style charge	#specifies what properties to associate with atoms

#cell vectors
variable a equal  4.212
atom_modify     map array sort 0 0.0

region box block 0.0 4.212 0.0 25.272 0.0 25.272 units box
boundary p p p  #PBC in x-direction
create_box 2 box  #generate simulation box
Created orthogonal box = (0 0 0) to (4.212 25.272 25.272)
  1 by 1 by 1 MPI processor grid

# set these parameters
# make sure neigh skin > 2*deltamove

#---------------------------- Parameters ----------------------------------------
#Number of montecarlo steps to run for
variable iter_steps loop 60
#number of steps to disorder system (inf temp)
variable disorder equal 5760
#number of sites in one Montecarlo step


#Temperature
variable T equal 0.026
#Inf temp for disordering
variable kT equal 1000 		#inf T for disorder phase
variable Tdecrease equal v_kT-0.026

variable deltaperturb equal 0.0    #0.2 max size of initial perturbation per dim
variable deltamove equal 1.0    #0.1 max size of MC move in one dimension

variable seed equal 582783
#-------------------------------------------------------------------------------------

#read in coordinates
read_dump testmc.xyz 0 x y z box no add yes format xyz
  orthogonal box = (0 0 0) to (4.212 25.272 25.272)
  0 atoms before read
  288 atoms in snapshot
  0 atoms purged
  0 atoms replaced
  0 atoms trimmed
  288 atoms added
  288 atoms after read

#set up potential
set type 1 charge  2.000000
  144 settings made for charge
set type 2 charge -2.000000
  144 settings made for charge

mass 1 24.305 #specify mass of atoms
mass 2 15.9994 #specify mass of atoms

pair_style hybrid/overlay buck 8.0 coul/long 8.0
pair_coeff 1 2 buck 1284.38000  0.299700  0.000000 8.0
pair_coeff 2 2 buck 9574.95996  0.219200  32.00000 8.0
pair_coeff * * coul/long
kspace_style pppm 1.0e-4
pair_modify table 0

neighbor 0.5 bin
neigh_modify delay 0 every 1 check yes
#neigh_modify check yes
variable        e equal pe

# run 0 to get energy of perfect lattice
# emin = minimum energy

run             0 post no
WARNING: No fixes defined, atoms won't move (../verlet.cpp:55)
PPPM initialization ...
WARNING: Using polynomial approximation for long-range coulomb (../kspace.cpp:316)
  G vector (1/distance) = 0.384915
  grid = 8 24 24
  stencil order = 5
  estimated absolute RMS force accuracy = 0.00143553
  estimated relative force accuracy = 9.96919e-05
  using double precision FFTs
  3d grid and FFT values/proc = 10933 4608
Neighbor list info ...
  2 neighbor list requests
  update every 1 steps, delay 0 steps, check yes
  max neighbors/atom: 2000, page size: 100000
  master list distance cutoff = 8.5
  ghost atom cutoff = 8.5
  binsize = 4.25 -> bins = 1 6 6
Memory usage per processor = 3.90743 Mbytes
Step Temp E_pair E_mol TotEng Press 
       0            0   -5925.6712            0   -5925.6712    802.88982 
Loop time of 3.09944e-06 on 1 procs for 0 steps with 288 atoms

96.8% CPU use with 1 MPI tasks x 1 OpenMP threads
variable        emin equal $e
variable        emin equal -5925.67122146364

# -------------------------- setting up system and random displacements -------------
# estart = initial energy

variable        z atom z
variable        y atom y

#variable        z atom z+v_deltaperturb*random(-1.0,1.0,${seed})
#variable        y atom y+v_deltaperturb*random(-1.0,1.0,${seed})

set             group all z v_z
  288 settings made for z
set             group all y v_y
  288 settings made for y
#-------------------------------------------------------------------------------------
dump 1 all custom 1 dumpmc0.026.lammpstrj id type xs ys zs

run             0 post no
WARNING: No fixes defined, atoms won't move (../verlet.cpp:55)
PPPM initialization ...
WARNING: Using polynomial approximation for long-range coulomb (../kspace.cpp:316)
  G vector (1/distance) = 0.384915
  grid = 8 24 24
  stencil order = 5
  estimated absolute RMS force accuracy = 0.00143553
  estimated relative force accuracy = 9.96919e-05
  using double precision FFTs
  3d grid and FFT values/proc = 10933 4608
Memory usage per processor = 5.16842 Mbytes
Step Temp E_pair E_mol TotEng Press 
       0            0   -5925.6712            0   -5925.6712    802.88982 
Loop time of 2.86102e-06 on 1 procs for 0 steps with 288 atoms

174.8% CPU use with 1 MPI tasks x 1 OpenMP threads

variable        estart equal $e
variable        estart equal -5925.67122146364
variable        elast equal $e
variable        elast equal -5925.67122146364

#-------------------- loop over Monte Carlo moves ----------------------------
#counters
variable        naccept equal 0
variable        increment equal v_naccept+1
variable 	nmoves equal 0.0
variable 	nmincrement equal v_nmoves+1
variable 	disordercounter equal 0
variable 	disincrement equal v_disordercounter+1
variable 	dismoves equal 0

variable        irandom equal floor(atoms*random(0.0,1.0,${seed})+1)
variable        irandom equal floor(atoms*random(0.0,1.0,582783)+1)
variable        rn equal random(0.0,1.0,${seed})
variable        rn equal random(0.0,1.0,582783)
variable        boltzfactor equal "exp((atoms*(v_elast - v_e)) / v_kT)"

variable        znew equal z[v_i]+v_deltamove*random(-1.0,1.0,${seed})
variable        znew equal z[v_i]+v_deltamove*random(-1.0,1.0,582783)
variable        ynew equal y[v_i]+v_deltamove*random(-1.0,1.0,${seed})
variable        ynew equal y[v_i]+v_deltamove*random(-1.0,1.0,582783)

variable 	atomid equal v_i%2
variable        zi equal z[v_i]
variable        yi equal y[v_i]
variable	layeri equal 0
variable 	loweri equal "v_i - 1"
variable 	upperi equal "v_i + 1"

#--------------------- LOOP -----------------------------------
label           loop
label 		loop_allsites
variable iter_sitemax loop 288

#print "initial kt ${kT}"
variable        i equal ${irandom}
variable        i equal 192

# 0 for even, take away one to get lower layer
# !=0 for odd, add one to get upper layer
if		"${atomid} == 0" then                   "variable layeri equal ${loweri} "                 else                   "variable layeri equal ${upperi} "
variable layeri equal ${loweri} 
variable layeri equal 191 
variable        z0 equal ${zi}
variable        z0 equal 23.166
variable        y0 equal ${yi}
variable        y0 equal 14.742

variable 	zupdate equal ${znew}
variable 	zupdate equal 23.4677662763596
variable 	yupdate equal ${ynew}
variable 	yupdate equal 13.8675302429199

# ---------------- Update pair of atoms (columns)-----------------
set             atom $i z ${zupdate}
set             atom 192 z ${zupdate}
set             atom 192 z 23.4677662763596
  1 settings made for z
set             atom $i y ${yupdate}
set             atom 192 y ${yupdate}
set             atom 192 y 13.8675302429199
  1 settings made for y

set             atom ${layeri} z ${zupdate}
set             atom 191 z ${zupdate}
set             atom 191 z 23.4677662763596
  1 settings made for z
set             atom ${layeri} y ${yupdate}
set             atom 191 y ${yupdate}
set             atom 191 y 13.8675302429199
  1 settings made for y
#--------------------------------------------------------------
print "$e ${elast}"
-5925.67122146364 -5925.67122146364
#variable epe equal findpe
run 1 post no
WARNING: No fixes defined, atoms won't move (../verlet.cpp:55)
PPPM initialization ...
WARNING: Using polynomial approximation for long-range coulomb (../kspace.cpp:316)
  G vector (1/distance) = 0.384915
  grid = 8 24 24
  stencil order = 5
  estimated absolute RMS force accuracy = 0.00143553
  estimated relative force accuracy = 9.96919e-05
  using double precision FFTs
  3d grid and FFT values/proc = 10933 4608
Memory usage per processor = 5.16842 Mbytes
Step Temp E_pair E_mol TotEng Press 
       0            0   -5905.1633            0   -5905.1633     23624.64 
       1            0   -5905.1633            0   -5905.1633     23624.64 
Loop time of 0.0135739 on 1 procs for 1 steps with 288 atoms

103.3% CPU use with 1 MPI tasks x 1 OpenMP threads
#compute findpe all pe
#print "${epe}"
#--------------------- Energy check ------------------------
variable 	rand equal ${rn}
variable 	rand equal 0.842021644115448
print "$e ${elast}"
-5905.16334477224 -5925.67122146364
if              "$e <= ${elast}" then                   "variable elast equal $e"                   "variable naccept equal ${increment}" 		  "run 1 post no"                 elif "${rand} <= ${boltzfactor}"                   "variable elast equal $e"                   "variable naccept equal ${increment}" 		  "run 1 post no"                 else                   "set atom $i z ${z0}"                   "set atom $i y ${y0}"                   "set atom ${layeri} z ${z0}"                   "set atom ${layeri} y ${y0}"
set atom $i z ${z0}
set atom 192 z ${z0}
set atom 192 z 23.166
  1 settings made for z
set atom $i y ${y0}
set atom 192 y ${y0}
set atom 192 y 14.742
  1 settings made for y
set atom ${layeri} z ${z0}
set atom 191 z ${z0}
set atom 191 z 23.166
  1 settings made for z
set atom ${layeri} y ${y0}
set atom 191 y ${y0}
set atom 191 y 14.742
  1 settings made for y
#run 1 post no
#--------------------------------------------------------------
variable nmoves equal ${nmincrement}
variable nmoves equal 1

variable 	disordercounter equal ${disincrement}
variable 	disordercounter equal 1

# ------- To stop when sufficiently disordered, reset counters -------------

if		"${disordercounter} == ${disorder}" then 		"variable kT equal $T" 		"variable dismoves equal ${nmoves}" 		"variable disaccept equal ${naccept}"
#--------------------------------------------------------------------------

if		"${disordercounter} > ${disorder}" then 		'variable totnmoves equal "v_nmoves - v_dismoves"' 		'variable totnaccept equal "v_naccept - v_disaccept"' 		'variable ratio equal "100*v_totnaccept/v_totnmoves"' 		'print "moves = ${totnmoves} Ratio of accepted/Total = ${ratio} %"'
next 		iter_sitemax
jump 		SELF loop_allsites
variable iter_sitemax loop 288

#print "initial kt ${kT}"
variable        i equal ${irandom}
variable        i equal 45

# 0 for even, take away one to get lower layer
# !=0 for odd, add one to get upper layer
if		"${atomid} == 0" then                   "variable layeri equal ${loweri} "                 else                   "variable layeri equal ${upperi} "
variable layeri equal ${upperi} 
variable layeri equal 46 
variable        z0 equal ${zi}
variable        z0 equal 21.06
variable        y0 equal ${yi}
variable        y0 equal 2.106

variable 	zupdate equal ${znew}
variable 	zupdate equal 21.9970536804199
variable 	yupdate equal ${ynew}
variable 	yupdate equal 2.00280480957031

# ---------------- Update pair of atoms (columns)-----------------
set             atom $i z ${zupdate}
set             atom 45 z ${zupdate}
set             atom 45 z 21.9970536804199
  1 settings made for z
set             atom $i y ${yupdate}
set             atom 45 y ${yupdate}
set             atom 45 y 2.00280480957031
  1 settings made for y

set             atom ${layeri} z ${zupdate}
set             atom 46 z ${zupdate}
set             atom 46 z 21.9970536804199
  1 settings made for z
set             atom ${layeri} y ${yupdate}
set             atom 46 y ${yupdate}
set             atom 46 y 2.00280480957031
  1 settings made for y
#--------------------------------------------------------------
print "$e ${elast}"
-5905.16334477224 -5925.67122146364
#variable epe equal findpe
run 1 post no
WARNING: No fixes defined, atoms won't move (../verlet.cpp:55)
PPPM initialization ...
WARNING: Using polynomial approximation for long-range coulomb (../kspace.cpp:316)
  G vector (1/distance) = 0.384915
  grid = 8 24 24
  stencil order = 5
  estimated absolute RMS force accuracy = 0.00143553
  estimated relative force accuracy = 9.96919e-05
  using double precision FFTs
  3d grid and FFT values/proc = 10933 4608
Memory usage per processor = 5.16842 Mbytes
Step Temp E_pair E_mol TotEng Press 
       1            0    -5897.153            0    -5897.153    29598.799 
       2            0    -5897.153            0    -5897.153    29598.799 
Loop time of 0.0134139 on 1 procs for 1 steps with 288 atoms

102.3% CPU use with 1 MPI tasks x 1 OpenMP threads
#compute findpe all pe
#print "${epe}"
#--------------------- Energy check ------------------------
variable 	rand equal ${rn}
variable 	rand equal 0.212040185928345
print "$e ${elast}"
-5897.15295314148 -5925.67122146364
if              "$e <= ${elast}" then                   "variable elast equal $e"                   "variable naccept equal ${increment}" 		  "run 1 post no"                 elif "${rand} <= ${boltzfactor}"                   "variable elast equal $e"                   "variable naccept equal ${increment}" 		  "run 1 post no"                 else                   "set atom $i z ${z0}"                   "set atom $i y ${y0}"                   "set atom ${layeri} z ${z0}"                   "set atom ${layeri} y ${y0}"
set atom $i z ${z0}
set atom 45 z ${z0}
set atom 45 z 21.06
  1 settings made for z
set atom $i y ${y0}
set atom 45 y ${y0}
set atom 45 y 2.106
  1 settings made for y
set atom ${layeri} z ${z0}
set atom 46 z ${z0}
set atom 46 z 21.06
  1 settings made for z
set atom ${layeri} y ${y0}
set atom 46 y ${y0}
set atom 46 y 2.106
  1 settings made for y
#run 1 post no
#--------------------------------------------------------------
variable nmoves equal ${nmincrement}
variable nmoves equal 2

variable 	disordercounter equal ${disincrement}
variable 	disordercounter equal 2

# ------- To stop when sufficiently disordered, reset counters -------------

if		"${disordercounter} == ${disorder}" then 		"variable kT equal $T" 		"variable dismoves equal ${nmoves}" 		"variable disaccept equal ${naccept}"
#--------------------------------------------------------------------------

if		"${disordercounter} > ${disorder}" then 		'variable totnmoves equal "v_nmoves - v_dismoves"' 		'variable totnaccept equal "v_naccept - v_disaccept"' 		'variable ratio equal "100*v_totnaccept/v_totnmoves"' 		'print "moves = ${totnmoves} Ratio of accepted/Total = ${ratio} %"'
next 		iter_sitemax
jump 		SELF loop_allsites
variable iter_sitemax loop 288

#print "initial kt ${kT}"
variable        i equal ${irandom}
variable        i equal 148

# 0 for even, take away one to get lower layer
# !=0 for odd, add one to get upper layer
if		"${atomid} == 0" then                   "variable layeri equal ${loweri} "                 else                   "variable layeri equal ${upperi} "
variable layeri equal ${loweri} 
variable layeri equal 147 
variable        z0 equal ${zi}
variable        z0 equal 2.106
variable        y0 equal ${yi}
variable        y0 equal 12.636

variable 	zupdate equal ${znew}
variable 	zupdate equal 2.52833872413635
variable 	yupdate equal ${ynew}
variable 	yupdate equal 12.15792902565

# ---------------- Update pair of atoms (columns)-----------------
set             atom $i z ${zupdate}
set             atom 148 z ${zupdate}
set             atom 148 z 2.52833872413635
  1 settings made for z
set             atom $i y ${yupdate}
set             atom 148 y ${yupdate}
set             atom 148 y 12.15792902565
  1 settings made for y

set             atom ${layeri} z ${zupdate}
set             atom 147 z ${zupdate}
set             atom 147 z 2.52833872413635
  1 settings made for z
set             atom ${layeri} y ${yupdate}
set             atom 147 y ${yupdate}
set             atom 147 y 12.15792902565
  1 settings made for y
#--------------------------------------------------------------
print "$e ${elast}"
-5897.15295314148 -5925.67122146364
#variable epe equal findpe
run 1 post no
WARNING: No fixes defined, atoms won't move (../verlet.cpp:55)
PPPM initialization ...
WARNING: Using polynomial approximation for long-range coulomb (../kspace.cpp:316)
  G vector (1/distance) = 0.384915
  grid = 8 24 24
  stencil order = 5
  estimated absolute RMS force accuracy = 0.00143553
  estimated relative force accuracy = 9.96919e-05
  using double precision FFTs
  3d grid and FFT values/proc = 10933 4608
Memory usage per processor = 5.16842 Mbytes
Step Temp E_pair E_mol TotEng Press 
       2            0    -5920.614            0    -5920.614    8521.2034 
       3            0    -5920.614            0    -5920.614    8521.2034 
Loop time of 0.013274 on 1 procs for 1 steps with 288 atoms

101.9% CPU use with 1 MPI tasks x 1 OpenMP threads
#compute findpe all pe
#print "${epe}"
#--------------------- Energy check ------------------------
variable 	rand equal ${rn}
variable 	rand equal 0.36762547492981
print "$e ${elast}"
-5920.61402749708 -5925.67122146364
if              "$e <= ${elast}" then                   "variable elast equal $e"                   "variable naccept equal ${increment}" 		  "run 1 post no"                 elif "${rand} <= ${boltzfactor}"                   "variable elast equal $e"                   "variable naccept equal ${increment}" 		  "run 1 post no"                 else                   "set atom $i z ${z0}"                   "set atom $i y ${y0}"                   "set atom ${layeri} z ${z0}"                   "set atom ${layeri} y ${y0}"
set atom $i z ${z0}
set atom 148 z ${z0}
set atom 148 z 2.106
  1 settings made for z
set atom $i y ${y0}
set atom 148 y ${y0}
set atom 148 y 12.636
  1 settings made for y
set atom ${layeri} z ${z0}
set atom 147 z ${z0}
set atom 147 z 2.106
  1 settings made for z
set atom ${layeri} y ${y0}
set atom 147 y ${y0}
set atom 147 y 12.636
  1 settings made for y
#run 1 post no
#--------------------------------------------------------------
variable nmoves equal ${nmincrement}
variable nmoves equal 3

variable 	disordercounter equal ${disincrement}
variable 	disordercounter equal 3

# ------- To stop when sufficiently disordered, reset counters -------------

if		"${disordercounter} == ${disorder}" then 		"variable kT equal $T" 		"variable dismoves equal ${nmoves}" 		"variable disaccept equal ${naccept}"
#--------------------------------------------------------------------------

if		"${disordercounter} > ${disorder}" then 		'variable totnmoves equal "v_nmoves - v_dismoves"' 		'variable totnaccept equal "v_naccept - v_disaccept"' 		'variable ratio equal "100*v_totnaccept/v_totnmoves"' 		'print "moves = ${totnmoves} Ratio of accepted/Total = ${ratio} %"'
next 		iter_sitemax
jump 		SELF loop_allsites
variable iter_sitemax loop 288

#print "initial kt ${kT}"
variable        i equal ${irandom}
variable        i equal 49

# 0 for even, take away one to get lower layer
# !=0 for odd, add one to get upper layer
if		"${atomid} == 0" then                   "variable layeri equal ${loweri} "                 else                   "variable layeri equal ${upperi} "
variable layeri equal ${upperi} 
variable layeri equal 50 
variable        z0 equal ${zi}
variable        z0 equal 0
variable        y0 equal ${yi}
variable        y0 equal 4.212

variable 	zupdate equal ${znew}
variable 	zupdate equal -0.346977591514587
variable 	yupdate equal ${ynew}
variable 	yupdate equal 3.40881179523468

# ---------------- Update pair of atoms (columns)-----------------
set             atom $i z ${zupdate}
set             atom 49 z ${zupdate}
set             atom 49 z -0.346977591514587
  1 settings made for z
set             atom $i y ${yupdate}
set             atom 49 y ${yupdate}
set             atom 49 y 3.40881179523468
  1 settings made for y

set             atom ${layeri} z ${zupdate}
set             atom 50 z ${zupdate}
set             atom 50 z -0.346977591514587
  1 settings made for z
set             atom ${layeri} y ${yupdate}
set             atom 50 y ${yupdate}
set             atom 50 y 3.40881179523468
  1 settings made for y
#--------------------------------------------------------------
print "$e ${elast}"
-5920.61402749708 -5925.67122146364
#variable epe equal findpe
run 1 post no
WARNING: No fixes defined, atoms won't move (../verlet.cpp:55)
PPPM initialization ...
WARNING: Using polynomial approximation for long-range coulomb (../kspace.cpp:316)
  G vector (1/distance) = 0.384915
  grid = 8 24 24
  stencil order = 5
  estimated absolute RMS force accuracy = 0.00143553
  estimated relative force accuracy = 9.96919e-05
  using double precision FFTs
  3d grid and FFT values/proc = 10933 4608
Memory usage per processor = 5.16842 Mbytes
Step Temp E_pair E_mol TotEng Press 
       3            0   -5910.3931            0   -5910.3931    19162.099 
       4            0   -5910.3931            0   -5910.3931    19162.099 
Loop time of 0.013092 on 1 procs for 1 steps with 288 atoms

101.4% CPU use with 1 MPI tasks x 1 OpenMP threads
#compute findpe all pe
#print "${epe}"
#--------------------- Energy check ------------------------
variable 	rand equal ${rn}
variable 	rand equal 0.218696594238281
print "$e ${elast}"
-5910.39313639408 -5925.67122146364
if              "$e <= ${elast}" then                   "variable elast equal $e"                   "variable naccept equal ${increment}" 		  "run 1 post no"                 elif "${rand} <= ${boltzfactor}"                   "variable elast equal $e"                   "variable naccept equal ${increment}" 		  "run 1 post no"                 else                   "set atom $i z ${z0}"                   "set atom $i y ${y0}"                   "set atom ${layeri} z ${z0}"                   "set atom ${layeri} y ${y0}"
set atom $i z ${z0}
set atom 49 z ${z0}
set atom 49 z 0
  1 settings made for z
set atom $i y ${y0}
set atom 49 y ${y0}
set atom 49 y 4.212
  1 settings made for y
set atom ${layeri} z ${z0}
set atom 50 z ${z0}
set atom 50 z 0
  1 settings made for z
set atom ${layeri} y ${y0}
set atom 50 y ${y0}
set atom 50 y 4.212
  1 settings made for y
#run 1 post no
#--------------------------------------------------------------
variable nmoves equal ${nmincrement}
variable nmoves equal 4

variable 	disordercounter equal ${disincrement}
variable 	disordercounter equal 4

# ------- To stop when sufficiently disordered, reset counters -------------

if		"${disordercounter} == ${disorder}" then 		"variable kT equal $T" 		"variable dismoves equal ${nmoves}" 		"variable disaccept equal ${naccept}"
#--------------------------------------------------------------------------

if		"${disordercounter} > ${disorder}" then 		'variable totnmoves equal "v_nmoves - v_dismoves"' 		'variable totnaccept equal "v_naccept - v_disaccept"' 		'variable ratio equal "100*v_totnaccept/v_totnmoves"' 		'print "moves = ${totnmoves} Ratio of accepted/Total = ${ratio} %"'
next 		iter_sitemax
jump 		SELF loop_allsites
variable iter_sitemax loop 288

#print "initial kt ${kT}"
variable        i equal ${irandom}
variable        i equal 115

# 0 for even, take away one to get lower layer
# !=0 for odd, add one to get upper layer
if		"${atomid} == 0" then                   "variable layeri equal ${loweri} "                 else                   "variable layeri equal ${upperi} "
variable layeri equal ${upperi} 
variable layeri equal 116 
variable        z0 equal ${zi}
variable        z0 equal 18.954
variable        y0 equal ${yi}
variable        y0 equal 8.424

variable 	zupdate equal ${znew}
variable 	zupdate equal 18.8134807386398
variable 	yupdate equal ${ynew}
variable 	yupdate equal 7.76911232376099

# ---------------- Update pair of atoms (columns)-----------------
set             atom $i z ${zupdate}
set             atom 115 z ${zupdate}
set             atom 115 z 18.8134807386398
  1 settings made for z
set             atom $i y ${yupdate}
set             atom 115 y ${yupdate}
set             atom 115 y 7.76911232376099
  1 settings made for y

set             atom ${layeri} z ${zupdate}
set             atom 116 z ${zupdate}
set             atom 116 z 18.8134807386398
  1 settings made for z
set             atom ${layeri} y ${yupdate}
set             atom 116 y ${yupdate}
set             atom 116 y 7.76911232376099
  1 settings made for y
#--------------------------------------------------------------
print "$e ${elast}"
-5910.39313639408 -5925.67122146364
#variable epe equal findpe
run 1 post no
WARNING: No fixes defined, atoms won't move (../verlet.cpp:55)
PPPM initialization ...
WARNING: Using polynomial approximation for long-range coulomb (../kspace.cpp:316)
  G vector (1/distance) = 0.384915
  grid = 8 24 24
  stencil order = 5
  estimated absolute RMS force accuracy = 0.00143553
  estimated relative force accuracy = 9.96919e-05
  using double precision FFTs
  3d grid and FFT values/proc = 10933 4608
Memory usage per processor = 5.16842 Mbytes
Step Temp E_pair E_mol TotEng Press 
       4            0   -5917.1764            0   -5917.1764    12080.806 
       5            0   -5917.1764            0   -5917.1764    12080.806 
Loop time of 0.0130231 on 1 procs for 1 steps with 288 atoms

99.4% CPU use with 1 MPI tasks x 1 OpenMP threads
#compute findpe all pe
#print "${epe}"
#--------------------- Energy check ------------------------
variable 	rand equal ${rn}
variable 	rand equal 0.813913881778717
print "$e ${elast}"
-5917.17637985472 -5925.67122146364
if              "$e <= ${elast}" then                   "variable elast equal $e"                   "variable naccept equal ${increment}" 		  "run 1 post no"                 elif "${rand} <= ${boltzfactor}"                   "variable elast equal $e"                   "variable naccept equal ${increment}" 		  "run 1 post no"                 else                   "set atom $i z ${z0}"                   "set atom $i y ${y0}"                   "set atom ${layeri} z ${z0}"                   "set atom ${layeri} y ${y0}"
set atom $i z ${z0}
set atom 115 z ${z0}
set atom 115 z 18.954
  1 settings made for z
set atom $i y ${y0}
set atom 115 y ${y0}
set atom 115 y 8.424
  1 settings made for y
set atom ${layeri} z ${z0}
set atom 116 z ${z0}
set atom 116 z 18.954
  1 settings made for z
set atom ${layeri} y ${y0}
set atom 116 y ${y0}
set atom 116 y 8.424
  1 settings made for y
#run 1 post no
#--------------------------------------------------------------
variable nmoves equal ${nmincrement}
variable nmoves equal 5

variable 	disordercounter equal ${disincrement}
variable 	disordercounter equal 5

# ------- To stop when sufficiently disordered, reset counters -------------

if		"${disordercounter} == ${disorder}" then 		"variable kT equal $T" 		"variable dismoves equal ${nmoves}" 		"variable disaccept equal ${naccept}"
#--------------------------------------------------------------------------

if		"${disordercounter} > ${disorder}" then 		'variable totnmoves equal "v_nmoves - v_dismoves"' 		'variable totnaccept equal "v_naccept - v_disaccept"' 		'variable ratio equal "100*v_totnaccept/v_totnmoves"' 		'print "moves = ${totnmoves} Ratio of accepted/Total = ${ratio} %"'
next 		iter_sitemax
jump 		SELF loop_allsites
variable iter_sitemax loop 288

#print "initial kt ${kT}"
variable        i equal ${irandom}
variable        i equal 167

# 0 for even, take away one to get lower layer
# !=0 for odd, add one to get upper layer
if		"${atomid} == 0" then                   "variable layeri equal ${loweri} "                 else                   "variable layeri equal ${upperi} "
variable layeri equal ${upperi} 
variable layeri equal 168 
variable        z0 equal ${zi}
variable        z0 equal 23.166
variable        y0 equal ${yi}
variable        y0 equal 12.636

variable 	zupdate equal ${znew}
variable 	zupdate equal 24.0781448993683
variable 	yupdate equal ${ynew}
variable 	yupdate equal 13.3860120401382

# ---------------- Update pair of atoms (columns)-----------------
set             atom $i z ${zupdate}
set             atom 167 z ${zupdate}
set             atom 167 z 24.0781448993683
  1 settings made for z
set             atom $i y ${yupdate}
set             atom 167 y ${yupdate}
set             atom 167 y 13.3860120401382
  1 settings made for y

set             atom ${layeri} z ${zupdate}
set             atom 168 z ${zupdate}
set             atom 168 z 24.0781448993683
  1 settings made for z
set             atom ${layeri} y ${yupdate}
set             atom 168 y ${yupdate}
set             atom 168 y 13.3860120401382
  1 settings made for y
#--------------------------------------------------------------
print "$e ${elast}"
-5917.17637985472 -5925.67122146364
#variable epe equal findpe
run 1 post no
WARNING: No fixes defined, atoms won't move (../verlet.cpp:55)
PPPM initialization ...
WARNING: Using polynomial approximation for long-range coulomb (../kspace.cpp:316)
  G vector (1/distance) = 0.384915
  grid = 8 24 24
  stencil order = 5
  estimated absolute RMS force accuracy = 0.00143553
  estimated relative force accuracy = 9.96919e-05
  using double precision FFTs
  3d grid and FFT values/proc = 10933 4608
Memory usage per processor = 5.16842 Mbytes
Step Temp E_pair E_mol TotEng Press 
       5            0   -5904.6696            0   -5904.6696    24954.659 
       6            0   -5904.6696            0   -5904.6696    24954.659 
Loop time of 0.0135362 on 1 procs for 1 steps with 288 atoms

71.6% CPU use with 1 MPI tasks x 1 OpenMP threads
#compute findpe all pe
#print "${epe}"
#--------------------- Energy check ------------------------
variable 	rand equal ${rn}
variable 	rand equal 0.617015957832336
print "$e ${elast}"
-5904.66961845911 -5925.67122146364
if              "$e <= ${elast}" then                   "variable elast equal $e"                   "variable naccept equal ${increment}" 		  "run 1 post no"                 elif "${rand} <= ${boltzfactor}"                   "variable elast equal $e"                   "variable naccept equal ${increment}" 		  "run 1 post no"                 else                   "set atom $i z ${z0}"                   "set atom $i y ${y0}"                   "set atom ${layeri} z ${z0}"                   "set atom ${layeri} y ${y0}"
set atom $i z ${z0}
set atom 167 z ${z0}
set atom 167 z 23.166
  1 settings made for z
set atom $i y ${y0}
set atom 167 y ${y0}
set atom 167 y 12.636
  1 settings made for y
set atom ${layeri} z ${z0}
set atom 168 z ${z0}
set atom 168 z 23.166
  1 settings made for z
set atom ${layeri} y ${y0}
set atom 168 y ${y0}
set atom 168 y 12.636
  1 settings made for y
#run 1 post no
#--------------------------------------------------------------
variable nmoves equal ${nmincrement}
variable nmoves equal 6

variable 	disordercounter equal ${disincrement}
variable 	disordercounter equal 6

# ------- To stop when sufficiently disordered, reset counters -------------

if		"${disordercounter} == ${disorder}" then 		"variable kT equal $T" 		"variable dismoves equal ${nmoves}" 		"variable disaccept equal ${naccept}"
#--------------------------------------------------------------------------

if		"${disordercounter} > ${disorder}" then 		'variable totnmoves equal "v_nmoves - v_dismoves"' 		'variable totnaccept equal "v_naccept - v_disaccept"' 		'variable ratio equal "100*v_totnaccept/v_totnmoves"' 		'print "moves = ${totnmoves} Ratio of accepted/Total = ${ratio} %"'
next 		iter_sitemax
jump 		SELF loop_allsites
variable iter_sitemax loop 288

#print "initial kt ${kT}"
variable        i equal ${irandom}
variable        i equal 139

# 0 for even, take away one to get lower layer
# !=0 for odd, add one to get upper layer
if		"${atomid} == 0" then                   "variable layeri equal ${loweri} "                 else                   "variable layeri equal ${upperi} "
variable layeri equal ${upperi} 
variable layeri equal 140 
variable        z0 equal ${zi}
variable        z0 equal 18.954
variable        y0 equal ${yi}
variable        y0 equal 10.53

variable 	zupdate equal ${znew}
variable 	zupdate equal 19.3677387275696
variable 	yupdate equal ${ynew}
variable 	yupdate equal 11.1750395584106

# ---------------- Update pair of atoms (columns)-----------------
set             atom $i z ${zupdate}
set             atom 139 z ${zupdate}
set             atom 139 z 19.3677387275696
  1 settings made for z
set             atom $i y ${yupdate}
set             atom 139 y ${yupdate}
set             atom 139 y 11.1750395584106
  1 settings made for y

set             atom ${layeri} z ${zupdate}
set             atom 140 z ${zupdate}
set             atom 140 z 19.3677387275696
  1 settings made for z
set             atom ${layeri} y ${yupdate}
set             atom 140 y ${yupdate}
set             atom 140 y 11.1750395584106
  1 settings made for y
#--------------------------------------------------------------
print "$e ${elast}"
-5904.66961845911 -5925.67122146364
#variable epe equal findpe
run 1 post no
WARNING: No fixes defined, atoms won't move (../verlet.cpp:55)
PPPM initialization ...
WARNING: Using polynomial approximation for long-range coulomb (../kspace.cpp:316)
  G vector (1/distance) = 0.384915
  grid = 8 24 24
  stencil order = 5
  estimated absolute RMS force accuracy = 0.00143553
  estimated relative force accuracy = 9.96919e-05
  using double precision FFTs
  3d grid and FFT values/proc = 10933 4608
Memory usage per processor = 5.16842 Mbytes
Step Temp E_pair E_mol TotEng Press 
       6            0   -5917.1301            0   -5917.1301    12620.491 
       7            0   -5917.1301            0   -5917.1301    12620.491 
Loop time of 0.013519 on 1 procs for 1 steps with 288 atoms

101.0% CPU use with 1 MPI tasks x 1 OpenMP threads
#compute findpe all pe
#print "${epe}"
#--------------------- Energy check ------------------------
variable 	rand equal ${rn}
variable 	rand equal 0.402767658233643
print "$e ${elast}"
-5917.13014079309 -5925.67122146364
if              "$e <= ${elast}" then                   "variable elast equal $e"                   "variable naccept equal ${increment}" 		  "run 1 post no"                 elif "${rand} <= ${boltzfactor}"                   "variable elast equal $e"                   "variable naccept equal ${increment}" 		  "run 1 post no"                 else                   "set atom $i z ${z0}"                   "set atom $i y ${y0}"                   "set atom ${layeri} z ${z0}"                   "set atom ${layeri} y ${y0}"
set atom $i z ${z0}
set atom 139 z ${z0}
set atom 139 z 18.954
  1 settings made for z
set atom $i y ${y0}
set atom 139 y ${y0}
set atom 139 y 10.53
  1 settings made for y
set atom ${layeri} z ${z0}
set atom 140 z ${z0}
set atom 140 z 18.954
  1 settings made for z
set atom ${layeri} y ${y0}
set atom 140 y ${y0}
set atom 140 y 10.53
  1 settings made for y
#run 1 post no
#--------------------------------------------------------------
variable nmoves equal ${nmincrement}
variable nmoves equal 7

variable 	disordercounter equal ${disincrement}
variable 	disordercounter equal 7

# ------- To stop when sufficiently disordered, reset counters -------------

if		"${disordercounter} == ${disorder}" then 		"variable kT equal $T" 		"variable dismoves equal ${nmoves}" 		"variable disaccept equal ${naccept}"
#--------------------------------------------------------------------------

if		"${disordercounter} > ${disorder}" then 		'variable totnmoves equal "v_nmoves - v_dismoves"' 		'variable totnaccept equal "v_naccept - v_disaccept"' 		'variable ratio equal "100*v_totnaccept/v_totnmoves"' 		'print "moves = ${totnmoves} Ratio of accepted/Total = ${ratio} %"'
next 		iter_sitemax
jump 		SELF loop_allsites
variable iter_sitemax loop 288

#print "initial kt ${kT}"
variable        i equal ${irandom}
variable        i equal 57

# 0 for even, take away one to get lower layer
# !=0 for odd, add one to get upper layer
if		"${atomid} == 0" then                   "variable layeri equal ${loweri} "                 else                   "variable layeri equal ${upperi} "
variable layeri equal ${upperi} 
variable layeri equal 58 
variable        z0 equal ${zi}
variable        z0 equal 8.424
variable        y0 equal ${yi}
variable        y0 equal 4.212

variable 	zupdate equal ${znew}
variable 	zupdate equal 9.22763845825195
variable 	yupdate equal ${ynew}
variable 	yupdate equal 4.98312364768982

# ---------------- Update pair of atoms (columns)-----------------
set             atom $i z ${zupdate}
set             atom 57 z ${zupdate}
set             atom 57 z 9.22763845825195
  1 settings made for z
set             atom $i y ${yupdate}
set             atom 57 y ${yupdate}
set             atom 57 y 4.98312364768982
  1 settings made for y

set             atom ${layeri} z ${zupdate}
set             atom 58 z ${zupdate}
set             atom 58 z 9.22763845825195
  1 settings made for z
set             atom ${layeri} y ${yupdate}
set             atom 58 y ${yupdate}
set             atom 58 y 4.98312364768982
  1 settings made for y
#--------------------------------------------------------------
print "$e ${elast}"
-5917.13014079309 -5925.67122146364
#variable epe equal findpe
run 1 post no
WARNING: No fixes defined, atoms won't move (../verlet.cpp:55)
PPPM initialization ...
WARNING: Using polynomial approximation for long-range coulomb (../kspace.cpp:316)
  G vector (1/distance) = 0.384915
  grid = 8 24 24
  stencil order = 5
  estimated absolute RMS force accuracy = 0.00143553
  estimated relative force accuracy = 9.96919e-05
  using double precision FFTs
  3d grid and FFT values/proc = 10933 4608
Memory usage per processor = 5.16842 Mbytes
Step Temp E_pair E_mol TotEng Press 
       7            0    -5908.308            0    -5908.308    21801.649 
       8            0    -5908.308            0    -5908.308    21801.649 
Loop time of 0.013252 on 1 procs for 1 steps with 288 atoms

99.0% CPU use with 1 MPI tasks x 1 OpenMP threads
#compute findpe all pe
#print "${epe}"
#--------------------- Energy check ------------------------
variable 	rand equal ${rn}
variable 	rand equal 0.72507655620575
print "$e ${elast}"
-5908.30797526438 -5925.67122146364
if              "$e <= ${elast}" then                   "variable elast equal $e"                   "variable naccept equal ${increment}" 		  "run 1 post no"                 elif "${rand} <= ${boltzfactor}"                   "variable elast equal $e"                   "variable naccept equal ${increment}" 		  "run 1 post no"                 else                   "set atom $i z ${z0}"                   "set atom $i y ${y0}"                   "set atom ${layeri} z ${z0}"                   "set atom ${layeri} y ${y0}"
set atom $i z ${z0}
set atom 57 z ${z0}
set atom 57 z 8.424
  1 settings made for z
set atom $i y ${y0}
set atom 57 y ${y0}
set atom 57 y 4.212
  1 settings made for y
set atom ${layeri} z ${z0}
set atom 58 z ${z0}
set atom 58 z 8.424
  1 settings made for z
set atom ${layeri} y ${y0}
set atom 58 y ${y0}
set atom 58 y 4.212
  1 settings made for y
#run 1 post no
#--------------------------------------------------------------
variable nmoves equal ${nmincrement}
variable nmoves equal 8

variable 	disordercounter equal ${disincrement}
variable 	disordercounter equal 8

# ------- To stop when sufficiently disordered, reset counters -------------

if		"${disordercounter} == ${disorder}" then 		"variable kT equal $T" 		"variable dismoves equal ${nmoves}" 		"variable disaccept equal ${naccept}"
#--------------------------------------------------------------------------

if		"${disordercounter} > ${disorder}" then 		'variable totnmoves equal "v_nmoves - v_dismoves"' 		'variable totnaccept equal "v_naccept - v_disaccept"' 		'variable ratio equal "100*v_totnaccept/v_totnmoves"' 		'print "moves = ${totnmoves} Ratio of accepted/Total = ${ratio} %"'
next 		iter_sitemax
jump 		SELF loop_allsites
variable iter_sitemax loop 288

#print "initial kt ${kT}"
variable        i equal ${irandom}
variable        i equal 78

# 0 for even, take away one to get lower layer
# !=0 for odd, add one to get upper layer
if		"${atomid} == 0" then                   "variable layeri equal ${loweri} "                 else                   "variable layeri equal ${upperi} "
variable layeri equal ${loweri} 
variable layeri equal 77 
variable        z0 equal ${zi}
variable        z0 equal 4.212
variable        y0 equal ${yi}
variable        y0 equal 6.318

variable 	zupdate equal ${znew}
variable 	zupdate equal 4.72417079162598
variable 	yupdate equal ${ynew}
variable 	yupdate equal 5.77997772026062

# ---------------- Update pair of atoms (columns)-----------------
set             atom $i z ${zupdate}
set             atom 78 z ${zupdate}
set             atom 78 z 4.72417079162598
  1 settings made for z
set             atom $i y ${yupdate}
set             atom 78 y ${yupdate}
set             atom 78 y 5.77997772026062
  1 settings made for y

set             atom ${layeri} z ${zupdate}
set             atom 77 z ${zupdate}
set             atom 77 z 4.72417079162598
  1 settings made for z
set             atom ${layeri} y ${yupdate}
set             atom 77 y ${yupdate}
set             atom 77 y 5.77997772026062
  1 settings made for y
#--------------------------------------------------------------
print "$e ${elast}"
-5908.30797526438 -5925.67122146364
#variable epe equal findpe
run 1 post no
WARNING: No fixes defined, atoms won't move (../verlet.cpp:55)
PPPM initialization ...
WARNING: Using polynomial approximation for long-range coulomb (../kspace.cpp:316)
  G vector (1/distance) = 0.384915
  grid = 8 24 24
  stencil order = 5
  estimated absolute RMS force accuracy = 0.00143553
  estimated relative force accuracy = 9.96919e-05
  using double precision FFTs
  3d grid and FFT values/proc = 10933 4608
Memory usage per processor = 5.16842 Mbytes
Step Temp E_pair E_mol TotEng Press 
       8            0   -5918.6511            0   -5918.6511    11032.368 
       9            0   -5918.6511            0   -5918.6511    11032.368 
Loop time of 0.0129449 on 1 procs for 1 steps with 288 atoms

99.4% CPU use with 1 MPI tasks x 1 OpenMP threads
#compute findpe all pe
#print "${epe}"
#--------------------- Energy check ------------------------
variable 	rand equal ${rn}
variable 	rand equal 0.210056900978088
print "$e ${elast}"
-5918.65109398084 -5925.67122146364
if              "$e <= ${elast}" then                   "variable elast equal $e"                   "variable naccept equal ${increment}" 		  "run 1 post no"                 elif "${rand} <= ${boltzfactor}"                   "variable elast equal $e"                   "variable naccept equal ${increment}" 		  "run 1 post no"                 else                   "set atom $i z ${z0}"                   "set atom $i y ${y0}"                   "set atom ${layeri} z ${z0}"                   "set atom ${layeri} y ${y0}"
set atom $i z ${z0}
set atom 78 z ${z0}
set atom 78 z 4.212
  1 settings made for z
set atom $i y ${y0}
set atom 78 y ${y0}
set atom 78 y 6.318
  1 settings made for y
set atom ${layeri} z ${z0}
set atom 77 z ${z0}
set atom 77 z 4.212
  1 settings made for z
set atom ${layeri} y ${y0}
set atom 77 y ${y0}
set atom 77 y 6.318
  1 settings made for y
#run 1 post no
#--------------------------------------------------------------
variable nmoves equal ${nmincrement}
variable nmoves equal 9

variable 	disordercounter equal ${disincrement}
variable 	disordercounter equal 9

# ------- To stop when sufficiently disordered, reset counters -------------

if		"${disordercounter} == ${disorder}" then 		"variable kT equal $T" 		"variable dismoves equal ${nmoves}" 		"variable disaccept equal ${naccept}"
#--------------------------------------------------------------------------

if		"${disordercounter} > ${disorder}" then 		'variable totnmoves equal "v_nmoves - v_dismoves"' 		'variable totnaccept equal "v_naccept - v_disaccept"' 		'variable ratio equal "100*v_totnaccept/v_totnmoves"' 		'print "moves = ${totnmoves} Ratio of accepted/Total = ${ratio} %"'
next 		iter_sitemax
jump 		SELF loop_allsites
variable iter_sitemax loop 288

#print "initial kt ${kT}"
variable        i equal ${irandom}
variable        i equal 131

# 0 for even, take away one to get lower layer
# !=0 for odd, add one to get upper layer
if		"${atomid} == 0" then                   "variable layeri equal ${loweri} "                 else                   "variable layeri equal ${upperi} "
variable layeri equal ${upperi} 
variable layeri equal 132 
variable        z0 equal ${zi}
variable        z0 equal 10.53
variable        y0 equal ${yi}
variable        y0 equal 10.53

variable 	zupdate equal ${znew}
variable 	zupdate equal 11.4821919488907
variable 	yupdate equal ${ynew}
variable 	yupdate equal 9.58701208114624

# ---------------- Update pair of atoms (columns)-----------------
set             atom $i z ${zupdate}
set             atom 131 z ${zupdate}
set             atom 131 z 11.4821919488907
  1 settings made for z
set             atom $i y ${yupdate}
set             atom 131 y ${yupdate}
set             atom 131 y 9.58701208114624
  1 settings made for y

set             atom ${layeri} z ${zupdate}
set             atom 132 z ${zupdate}
set             atom 132 z 11.4821919488907
  1 settings made for z
set             atom ${layeri} y ${yupdate}
set             atom 132 y ${yupdate}
set             atom 132 y 9.58701208114624
  1 settings made for y
#--------------------------------------------------------------
print "$e ${elast}"
-5918.65109398084 -5925.67122146364
#variable epe equal findpe
run 1 post no
WARNING: No fixes defined, atoms won't move (../verlet.cpp:55)
PPPM initialization ...
WARNING: Using polynomial approximation for long-range coulomb (../kspace.cpp:316)
  G vector (1/distance) = 0.384915
  grid = 8 24 24
  stencil order = 5
  estimated absolute RMS force accuracy = 0.00143553
  estimated relative force accuracy = 9.96919e-05
  using double precision FFTs
  3d grid and FFT values/proc = 10933 4608
Memory usage per processor = 5.16842 Mbytes
Step Temp E_pair E_mol TotEng Press 
       9            0   -5898.7061            0   -5898.7061    29762.638 
      10            0   -5898.7061            0   -5898.7061    29762.638 
Loop time of 0.0130339 on 1 procs for 1 steps with 288 atoms

99.4% CPU use with 1 MPI tasks x 1 OpenMP threads
#compute findpe all pe
#print "${epe}"
#--------------------- Energy check ------------------------
variable 	rand equal ${rn}
variable 	rand equal 0.427482008934021
print "$e ${elast}"
-5898.70613172445 -5925.67122146364
if              "$e <= ${elast}" then                   "variable elast equal $e"                   "variable naccept equal ${increment}" 		  "run 1 post no"                 elif "${rand} <= ${boltzfactor}"                   "variable elast equal $e"                   "variable naccept equal ${increment}" 		  "run 1 post no"                 else                   "set atom $i z ${z0}"                   "set atom $i y ${y0}"                   "set atom ${layeri} z ${z0}"                   "set atom ${layeri} y ${y0}"
set atom $i z ${z0}
set atom 131 z ${z0}
set atom 131 z 10.53
  1 settings made for z
set atom $i y ${y0}
set atom 131 y ${y0}
set atom 131 y 10.53
  1 settings made for y
set atom ${layeri} z ${z0}
set atom 132 z ${z0}
set atom 132 z 10.53
  1 settings made for z
set atom ${layeri} y ${y0}
set atom 132 y ${y0}
set atom 132 y 10.53
  1 settings made for y
#run 1 post no
#--------------------------------------------------------------
variable nmoves equal ${nmincrement}
variable nmoves equal 10

variable 	disordercounter equal ${disincrement}
variable 	disordercounter equal 10

# ------- To stop when sufficiently disordered, reset counters -------------

if		"${disordercounter} == ${disorder}" then 		"variable kT equal $T" 		"variable dismoves equal ${nmoves}" 		"variable disaccept equal ${naccept}"
#--------------------------------------------------------------------------

if		"${disordercounter} > ${disorder}" then 		'variable totnmoves equal "v_nmoves - v_dismoves"' 		'variable totnaccept equal "v_naccept - v_disaccept"' 		'variable ratio equal "100*v_totnaccept/v_totnmoves"' 		'print "moves = ${totnmoves} Ratio of accepted/Total = ${ratio} %"'
next 		iter_sitemax
jump 		SELF loop_allsites
variable iter_sitemax loop 288

#print "initial kt ${kT}"
variable        i equal ${irandom}
variable        i equal 90

# 0 for even, take away one to get lower layer
# !=0 for odd, add one to get upper layer
if		"${atomid} == 0" then                   "variable layeri equal ${loweri} "                 else                   "variable layeri equal ${upperi} "
variable layeri equal ${loweri} 
variable layeri equal 89 
variable        z0 equal ${zi}
variable        z0 equal 16.848
variable        y0 equal ${yi}
variable        y0 equal 6.318

variable 	zupdate equal ${znew}
variable 	zupdate equal 16.1112204294205
variable 	yupdate equal ${ynew}
variable 	yupdate equal 6.49460272121429

# ---------------- Update pair of atoms (columns)-----------------
set             atom $i z ${zupdate}
set             atom 90 z ${zupdate}
set             atom 90 z 16.1112204294205
  1 settings made for z
set             atom $i y ${yupdate}
set             atom 90 y ${yupdate}
set             atom 90 y 6.49460272121429
  1 settings made for y

set             atom ${layeri} z ${zupdate}
set             atom 89 z ${zupdate}
set             atom 89 z 16.1112204294205
  1 settings made for z
set             atom ${layeri} y ${yupdate}
set             atom 89 y ${yupdate}
set             atom 89 y 6.49460272121429
  1 settings made for y
#--------------------------------------------------------------
print "$e ${elast}"
-5898.70613172445 -5925.67122146364
#variable epe equal findpe
run 1 post no
WARNING: No fixes defined, atoms won't move (../verlet.cpp:55)
PPPM initialization ...
WARNING: Using polynomial approximation for long-range coulomb (../kspace.cpp:316)
  G vector (1/distance) = 0.384915
  grid = 8 24 24
  stencil order = 5
  estimated absolute RMS force accuracy = 0.00143553
  estimated relative force accuracy = 9.96919e-05
  using double precision FFTs
  3d grid and FFT values/proc = 10933 4608
Memory usage per processor = 5.16842 Mbytes
Step Temp E_pair E_mol TotEng Press 
      10            0    -5913.514            0    -5913.514    15883.175 
      11            0    -5913.514            0    -5913.514    15883.175 
Loop time of 0.0130639 on 1 procs for 1 steps with 288 atoms

99.4% CPU use with 1 MPI tasks x 1 OpenMP threads
#compute findpe all pe
#print "${epe}"
#--------------------- Energy check ------------------------
variable 	rand equal ${rn}
variable 	rand equal 0.73750501871109
print "$e ${elast}"
-5913.51398934223 -5925.67122146364
if              "$e <= ${elast}" then                   "variable elast equal $e"                   "variable naccept equal ${increment}" 		  "run 1 post no"                 elif "${rand} <= ${boltzfactor}"                   "variable elast equal $e"                   "variable naccept equal ${increment}" 		  "run 1 post no"                 else                   "set atom $i z ${z0}"                   "set atom $i y ${y0}"                   "set atom ${layeri} z ${z0}"                   "set atom ${layeri} y ${y0}"
set atom $i z ${z0}
set atom 90 z ${z0}
set atom 90 z 16.848
  1 settings made for z
set atom $i y ${y0}
set atom 90 y ${y0}
set atom 90 y 6.318
  1 settings made for y
set atom ${layeri} z ${z0}
set atom 89 z ${z0}
set atom 89 z 16.848
  1 settings made for z
set atom ${layeri} y ${y0}
set atom 89 y ${y0}
set atom 89 y 6.318
  1 settings made for y
#run 1 post no
#--------------------------------------------------------------
variable nmoves equal ${nmincrement}
variable nmoves equal 11

variable 	disordercounter equal ${disincrement}
variable 	disordercounter equal 11

# ------- To stop when sufficiently disordered, reset counters -------------

if		"${disordercounter} == ${disorder}" then 		"variable kT equal $T" 		"variable dismoves equal ${nmoves}" 		"variable disaccept equal ${naccept}"
#--------------------------------------------------------------------------

if		"${disordercounter} > ${disorder}" then 		'variable totnmoves equal "v_nmoves - v_dismoves"' 		'variable totnaccept equal "v_naccept - v_disaccept"' 		'variable ratio equal "100*v_totnaccept/v_totnmoves"' 		'print "moves = ${totnmoves} Ratio of accepted/Total = ${ratio} %"'
next 		iter_sitemax
jump 		SELF loop_allsites
variable iter_sitemax loop 288

#print "initial kt ${kT}"
variable        i equal ${irandom}
variable        i equal 133

# 0 for even, take away one to get lower layer
# !=0 for odd, add one to get upper layer
if		"${atomid} == 0" then                   "variable layeri equal ${loweri} "                 else                   "variable layeri equal ${upperi} "
variable layeri equal ${upperi} 
variable layeri equal 134 
variable        z0 equal ${zi}
variable        z0 equal 12.636
variable        y0 equal ${yi}
variable        y0 equal 10.53

variable 	zupdate equal ${znew}
variable 	zupdate equal 11.8825463876724
variable 	yupdate equal ${ynew}
variable 	yupdate equal 10.1089422988892

# ---------------- Update pair of atoms (columns)-----------------
set             atom $i z ${zupdate}
set             atom 133 z ${zupdate}
set             atom 133 z 11.8825463876724
  1 settings made for z
set             atom $i y ${yupdate}
set             atom 133 y ${yupdate}
set             atom 133 y 10.1089422988892
  1 settings made for y

set             atom ${layeri} z ${zupdate}
set             atom 134 z ${zupdate}
set             atom 134 z 11.8825463876724
  1 settings made for z
set             atom ${layeri} y ${yupdate}
set             atom 134 y ${yupdate}
set             atom 134 y 10.1089422988892
  1 settings made for y
#--------------------------------------------------------------
print "$e ${elast}"
-5913.51398934223 -5925.67122146364
#variable epe equal findpe
run 1 post no
WARNING: No fixes defined, atoms won't move (../verlet.cpp:55)
PPPM initialization ...
WARNING: Using polynomial approximation for long-range coulomb (../kspace.cpp:316)
  G vector (1/distance) = 0.384915
  grid = 8 24 24
  stencil order = 5
  estimated absolute RMS force accuracy = 0.00143553
  estimated relative force accuracy = 9.96919e-05
  using double precision FFTs
  3d grid and FFT values/proc = 10933 4608
Memory usage per processor = 5.16842 Mbytes
Step Temp E_pair E_mol TotEng Press 
      11            0   -5913.1363            0   -5913.1363     16745.72 
      12            0   -5913.1363            0   -5913.1363     16745.72 
Loop time of 0.01384 on 1 procs for 1 steps with 288 atoms

71.6% CPU use with 1 MPI tasks x 1 OpenMP threads
#compute findpe all pe
#print "${epe}"
#--------------------- Energy check ------------------------
variable 	rand equal ${rn}
variable 	rand equal 0.769585072994232
print "$e ${elast}"
-5913.13625163027 -5925.67122146364
if              "$e <= ${elast}" then                   "variable elast equal $e"                   "variable naccept equal ${increment}" 		  "run 1 post no"                 elif "${rand} <= ${boltzfactor}"                   "variable elast equal $e"                   "variable naccept equal ${increment}" 		  "run 1 post no"                 else                   "set atom $i z ${z0}"                   "set atom $i y ${y0}"                   "set atom ${layeri} z ${z0}"                   "set atom ${layeri} y ${y0}"
set atom $i z ${z0}
set atom 133 z ${z0}
set atom 133 z 12.636
  1 settings made for z
set atom $i y ${y0}
set atom 133 y ${y0}
set atom 133 y 10.53
  1 settings made for y
set atom ${layeri} z ${z0}
set atom 134 z ${z0}
set atom 134 z 12.636
  1 settings made for z
set atom ${layeri} y ${y0}
set atom 134 y ${y0}
set atom 134 y 10.53
  1 settings made for y
#run 1 post no
#--------------------------------------------------------------
variable nmoves equal ${nmincrement}
variable nmoves equal 12

variable 	disordercounter equal ${disincrement}
variable 	disordercounter equal 12

# ------- To stop when sufficiently disordered, reset counters -------------

if		"${disordercounter} == ${disorder}" then 		"variable kT equal $T" 		"variable dismoves equal ${nmoves}" 		"variable disaccept equal ${naccept}"
#--------------------------------------------------------------------------

if		"${disordercounter} > ${disorder}" then 		'variable totnmoves equal "v_nmoves - v_dismoves"' 		'variable totnaccept equal "v_naccept - v_disaccept"' 		'variable ratio equal "100*v_totnaccept/v_totnmoves"' 		'print "moves = ${totnmoves} Ratio of accepted/Total = ${ratio} %"'
next 		iter_sitemax
jump 		SELF loop_allsites
variable iter_sitemax loop 288

#print "initial kt ${kT}"
variable        i equal ${irandom}
variable        i equal 122

# 0 for even, take away one to get lower layer
# !=0 for odd, add one to get upper layer
if		"${atomid} == 0" then                   "variable layeri equal ${loweri} "                 else                   "variable layeri equal ${upperi} "
variable layeri equal ${loweri} 
variable layeri equal 121 
variable        z0 equal ${zi}
variable        z0 equal 0
variable        y0 equal ${yi}
variable        y0 equal 10.53

variable 	zupdate equal ${znew}
variable 	zupdate equal 0.585653305053711
variable 	yupdate equal ${ynew}
variable 	yupdate equal 11.1775411653519

# ---------------- Update pair of atoms (columns)-----------------
set             atom $i z ${zupdate}
set             atom 122 z ${zupdate}
set             atom 122 z 0.585653305053711
  1 settings made for z
set             atom $i y ${yupdate}
set             atom 122 y ${yupdate}
set             atom 122 y 11.1775411653519
  1 settings made for y

set             atom ${layeri} z ${zupdate}
set             atom 121 z ${zupdate}
set             atom 121 z 0.585653305053711
  1 settings made for z
set             atom ${layeri} y ${yupdate}
set             atom 121 y ${yupdate}
set             atom 121 y 11.1775411653519
  1 settings made for y
#--------------------------------------------------------------
print "$e ${elast}"
-5913.13625163027 -5925.67122146364
#variable epe equal findpe
run 1 post no
WARNING: No fixes defined, atoms won't move (../verlet.cpp:55)
PPPM initialization ...
WARNING: Using polynomial approximation for long-range coulomb (../kspace.cpp:316)
  G vector (1/distance) = 0.384915
  grid = 8 24 24
  stencil order = 5
  estimated absolute RMS force accuracy = 0.00143553
  estimated relative force accuracy = 9.96919e-05
  using double precision FFTs
  3d grid and FFT values/proc = 10933 4608
Memory usage per processor = 5.16842 Mbytes
Step Temp E_pair E_mol TotEng Press 
      12            0    -5915.546            0    -5915.546    14608.028 
      13            0    -5915.546            0    -5915.546    14608.028 
Loop time of 0.013402 on 1 procs for 1 steps with 288 atoms

99.2% CPU use with 1 MPI tasks x 1 OpenMP threads
#compute findpe all pe
#print "${epe}"
#--------------------- Energy check ------------------------
variable 	rand equal ${rn}
variable 	rand equal 0.940836727619171
print "$e ${elast}"
-5915.54599020755 -5925.67122146364
if              "$e <= ${elast}" then                   "variable elast equal $e"                   "variable naccept equal ${increment}" 		  "run 1 post no"                 elif "${rand} <= ${boltzfactor}"                   "variable elast equal $e"                   "variable naccept equal ${increment}" 		  "run 1 post no"                 else                   "set atom $i z ${z0}"                   "set atom $i y ${y0}"                   "set atom ${layeri} z ${z0}"                   "set atom ${layeri} y ${y0}"
set atom $i z ${z0}
set atom 122 z ${z0}
set atom 122 z 0
  1 settings made for z
set atom $i y ${y0}
set atom 122 y ${y0}
set atom 122 y 10.53
  1 settings made for y
set atom ${layeri} z ${z0}
set atom 121 z ${z0}
set atom 121 z 0
  1 settings made for z
set atom ${layeri} y ${y0}
set atom 121 y ${y0}
set atom 121 y 10.53
  1 settings made for y
#run 1 post no
#--------------------------------------------------------------
variable nmoves equal ${nmincrement}
variable nmoves equal 13

variable 	disordercounter equal ${disincrement}
variable 	disordercounter equal 13

# ------- To stop when sufficiently disordered, reset counters -------------

if		"${disordercounter} == ${disorder}" then 		"variable kT equal $T" 		"variable dismoves equal ${nmoves}" 		"variable disaccept equal ${naccept}"
#--------------------------------------------------------------------------

if		"${disordercounter} > ${disorder}" then 		'variable totnmoves equal "v_nmoves - v_dismoves"' 		'variable totnaccept equal "v_naccept - v_disaccept"' 		'variable ratio equal "100*v_totnaccept/v_totnmoves"' 		'print "moves = ${totnmoves} Ratio of accepted/Total = ${ratio} %"'
next 		iter_sitemax
jump 		SELF loop_allsites
variable iter_sitemax loop 288

#print "initial kt ${kT}"
variable        i equal ${irandom}
variable        i equal 48

# 0 for even, take away one to get lower layer
# !=0 for odd, add one to get upper layer
if		"${atomid} == 0" then                   "variable layeri equal ${loweri} "                 else                   "variable layeri equal ${upperi} "
variable layeri equal ${loweri} 
variable layeri equal 47 
variable        z0 equal ${zi}
variable        z0 equal 23.166
variable        y0 equal ${yi}
variable        y0 equal 2.106

variable 	zupdate equal ${znew}
variable 	zupdate equal 23.518835059166
variable 	yupdate equal ${ynew}
variable 	yupdate equal 1.54920642948151

# ---------------- Update pair of atoms (columns)-----------------
set             atom $i z ${zupdate}
set             atom 48 z ${zupdate}
set             atom 48 z 23.518835059166
  1 settings made for z
set             atom $i y ${yupdate}
set             atom 48 y ${yupdate}
set             atom 48 y 1.54920642948151
  1 settings made for y

set             atom ${layeri} z ${zupdate}
set             atom 47 z ${zupdate}
set             atom 47 z 23.518835059166
  1 settings made for z
set             atom ${layeri} y ${yupdate}
set             atom 47 y ${yupdate}
set             atom 47 y 1.54920642948151
  1 settings made for y
#--------------------------------------------------------------
print "$e ${elast}"
-5915.54599020755 -5925.67122146364
#variable epe equal findpe
run 1 post no
WARNING: No fixes defined, atoms won't move (../verlet.cpp:55)
PPPM initialization ...
WARNING: Using polynomial approximation for long-range coulomb (../kspace.cpp:316)
  G vector (1/distance) = 0.384915
  grid = 8 24 24
  stencil order = 5
  estimated absolute RMS force accuracy = 0.00143553
  estimated relative force accuracy = 9.96919e-05
  using double precision FFTs
  3d grid and FFT values/proc = 10933 4608
Memory usage per processor = 5.16842 Mbytes
Step Temp E_pair E_mol TotEng Press 
      13            0   -5919.7133            0   -5919.7133    9549.1179 
      14            0   -5919.7133            0   -5919.7133    9549.1179 
Loop time of 0.01315 on 1 procs for 1 steps with 288 atoms

70.3% CPU use with 1 MPI tasks x 1 OpenMP threads
#compute findpe all pe
#print "${epe}"
#--------------------- Energy check ------------------------
variable 	rand equal ${rn}
variable 	rand equal 0.732502341270447
print "$e ${elast}"
-5919.71333771798 -5925.67122146364
if              "$e <= ${elast}" then                   "variable elast equal $e"                   "variable naccept equal ${increment}" 		  "run 1 post no"                 elif "${rand} <= ${boltzfactor}"                   "variable elast equal $e"                   "variable naccept equal ${increment}" 		  "run 1 post no"                 else                   "set atom $i z ${z0}"                   "set atom $i y ${y0}"                   "set atom ${layeri} z ${z0}"                   "set atom ${layeri} y ${y0}"
set atom $i z ${z0}
set atom 48 z ${z0}
set atom 48 z 23.166
  1 settings made for z
set atom $i y ${y0}
set atom 48 y ${y0}
set atom 48 y 2.106
  1 settings made for y
set atom ${layeri} z ${z0}
set atom 47 z ${z0}
set atom 47 z 23.166
  1 settings made for z
set atom ${layeri} y ${y0}
set atom 47 y ${y0}
set atom 47 y 2.106
  1 settings made for y
#run 1 post no
#--------------------------------------------------------------
variable nmoves equal ${nmincrement}
variable nmoves equal 14

variable 	disordercounter equal ${disincrement}
variable 	disordercounter equal 14

# ------- To stop when sufficiently disordered, reset counters -------------

if		"${disordercounter} == ${disorder}" then 		"variable kT equal $T" 		"variable dismoves equal ${nmoves}" 		"variable disaccept equal ${naccept}"
#--------------------------------------------------------------------------

if		"${disordercounter} > ${disorder}" then 		'variable totnmoves equal "v_nmoves - v_dismoves"' 		'variable totnaccept equal "v_naccept - v_disaccept"' 		'variable ratio equal "100*v_totnaccept/v_totnmoves"' 		'print "moves = ${totnmoves} Ratio of accepted/Total = ${ratio} %"'
next 		iter_sitemax
jump 		SELF loop_allsites
variable iter_sitemax loop 288

#print "initial kt ${kT}"
variable        i equal ${irandom}
variable        i equal 17

# 0 for even, take away one to get lower layer
# !=0 for odd, add one to get upper layer
if		"${atomid} == 0" then                   "variable layeri equal ${loweri} "                 else                   "variable layeri equal ${upperi} "
variable layeri equal ${upperi} 
variable layeri equal 18 
variable        z0 equal ${zi}
variable        z0 equal 16.848
variable        y0 equal ${yi}
variable        y0 equal 0

variable 	zupdate equal ${znew}
variable 	zupdate equal 16.4250448446274
variable 	yupdate equal ${ynew}
variable 	yupdate equal 0.0241801738739014

# ---------------- Update pair of atoms (columns)-----------------
set             atom $i z ${zupdate}
set             atom 17 z ${zupdate}
set             atom 17 z 16.4250448446274
  1 settings made for z
set             atom $i y ${yupdate}
set             atom 17 y ${yupdate}
set             atom 17 y 0.0241801738739014
  1 settings made for y

set             atom ${layeri} z ${zupdate}
set             atom 18 z ${zupdate}
set             atom 18 z 16.4250448446274
  1 settings made for z
set             atom ${layeri} y ${yupdate}
set             atom 18 y ${yupdate}
set             atom 18 y 0.0241801738739014
  1 settings made for y
#--------------------------------------------------------------
print "$e ${elast}"
-5919.71333771798 -5925.67122146364
#variable epe equal findpe
run 1 post no
WARNING: No fixes defined, atoms won't move (../verlet.cpp:55)
PPPM initialization ...
WARNING: Using polynomial approximation for long-range coulomb (../kspace.cpp:316)
  G vector (1/distance) = 0.384915
  grid = 8 24 24
  stencil order = 5
  estimated absolute RMS force accuracy = 0.00143553
  estimated relative force accuracy = 9.96919e-05
  using double precision FFTs
  3d grid and FFT values/proc = 10933 4608
Memory usage per processor = 5.16842 Mbytes
Step Temp E_pair E_mol TotEng Press 
      14            0   -5923.1114            0   -5923.1114    4807.4722 
      15            0   -5923.1114            0   -5923.1114    4807.4722 
Loop time of 0.0129828 on 1 procs for 1 steps with 288 atoms

99.4% CPU use with 1 MPI tasks x 1 OpenMP threads
#compute findpe all pe
#print "${epe}"
#--------------------- Energy check ------------------------
variable 	rand equal ${rn}
variable 	rand equal 0.694545209407806
print "$e ${elast}"
-5923.11137332525 -5925.67122146364
if              "$e <= ${elast}" then                   "variable elast equal $e"                   "variable naccept equal ${increment}" 		  "run 1 post no"                 elif "${rand} <= ${boltzfactor}"                   "variable elast equal $e"                   "variable naccept equal ${increment}" 		  "run 1 post no"                 else                   "set atom $i z ${z0}"                   "set atom $i y ${y0}"                   "set atom ${layeri} z ${z0}"                   "set atom ${layeri} y ${y0}"
set atom $i z ${z0}
set atom 17 z ${z0}
set atom 17 z 16.848
  1 settings made for z
set atom $i y ${y0}
set atom 17 y ${y0}
set atom 17 y 0
  1 settings made for y
set atom ${layeri} z ${z0}
set atom 18 z ${z0}
set atom 18 z 16.848
  1 settings made for z
set atom ${layeri} y ${y0}
set atom 18 y ${y0}
set atom 18 y 0
  1 settings made for y
#run 1 post no
#--------------------------------------------------------------
variable nmoves equal ${nmincrement}
variable nmoves equal 15

variable 	disordercounter equal ${disincrement}
variable 	disordercounter equal 15

# ------- To stop when sufficiently disordered, reset counters -------------

if		"${disordercounter} == ${disorder}" then 		"variable kT equal $T" 		"variable dismoves equal ${nmoves}" 		"variable disaccept equal ${naccept}"
#--------------------------------------------------------------------------

if		"${disordercounter} > ${disorder}" then 		'variable totnmoves equal "v_nmoves - v_dismoves"' 		'variable totnaccept equal "v_naccept - v_disaccept"' 		'variable ratio equal "100*v_totnaccept/v_totnmoves"' 		'print "moves = ${totnmoves} Ratio of accepted/Total = ${ratio} %"'
next 		iter_sitemax
jump 		SELF loop_allsites
variable iter_sitemax loop 288

#print "initial kt ${kT}"
variable        i equal ${irandom}
variable        i equal 18

# 0 for even, take away one to get lower layer
# !=0 for odd, add one to get upper layer
if		"${atomid} == 0" then                   "variable layeri equal ${loweri} "                 else                   "variable layeri equal ${upperi} "
variable layeri equal ${loweri} 
variable layeri equal 17 
variable        z0 equal ${zi}
variable        z0 equal 16.848
variable        y0 equal ${yi}
variable        y0 equal 0

variable 	zupdate equal ${znew}
variable 	zupdate equal 17.6176679830551
variable 	yupdate equal ${ynew}
variable 	yupdate equal -0.230857610702515

# ---------------- Update pair of atoms (columns)-----------------
set             atom $i z ${zupdate}
set             atom 18 z ${zupdate}
set             atom 18 z 17.6176679830551
  1 settings made for z
set             atom $i y ${yupdate}
set             atom 18 y ${yupdate}
set             atom 18 y -0.230857610702515
  1 settings made for y

set             atom ${layeri} z ${zupdate}
set             atom 17 z ${zupdate}
set             atom 17 z 17.6176679830551
  1 settings made for z
set             atom ${layeri} y ${yupdate}
set             atom 17 y ${yupdate}
set             atom 17 y -0.230857610702515
  1 settings made for y
#--------------------------------------------------------------
print "$e ${elast}"
-5923.11137332525 -5925.67122146364
#variable epe equal findpe
run 1 post no
WARNING: No fixes defined, atoms won't move (../verlet.cpp:55)
PPPM initialization ...
WARNING: Using polynomial approximation for long-range coulomb (../kspace.cpp:316)
  G vector (1/distance) = 0.384915
  grid = 8 24 24
  stencil order = 5
  estimated absolute RMS force accuracy = 0.00143553
  estimated relative force accuracy = 9.96919e-05
  using double precision FFTs
  3d grid and FFT values/proc = 10933 4608
Memory usage per processor = 5.16842 Mbytes
Step Temp E_pair E_mol TotEng Press 
      15            0   -5911.8573            0   -5911.8573    17560.663 
      16            0   -5911.8573            0   -5911.8573    17560.663 
Loop time of 0.0129712 on 1 procs for 1 steps with 288 atoms

99.4% CPU use with 1 MPI tasks x 1 OpenMP threads
#compute findpe all pe
#print "${epe}"
#--------------------- Energy check ------------------------
variable 	rand equal ${rn}
variable 	rand equal 0.455615103244781
print "$e ${elast}"
-5911.8573015356 -5925.67122146364
if              "$e <= ${elast}" then                   "variable elast equal $e"                   "variable naccept equal ${increment}" 		  "run 1 post no"                 elif "${rand} <= ${boltzfactor}"                   "variable elast equal $e"                   "variable naccept equal ${increment}" 		  "run 1 post no"                 else                   "set atom $i z ${z0}"                   "set atom $i y ${y0}"                   "set atom ${layeri} z ${z0}"                   "set atom ${layeri} y ${y0}"
set atom $i z ${z0}
set atom 18 z ${z0}
set atom 18 z 16.848
  1 settings made for z
set atom $i y ${y0}
set atom 18 y ${y0}
set atom 18 y 0
  1 settings made for y
set atom ${layeri} z ${z0}
set atom 17 z ${z0}
set atom 17 z 16.848
  1 settings made for z
set atom ${layeri} y ${y0}
set atom 17 y ${y0}
set atom 17 y 0
  1 settings made for y
#run 1 post no
#--------------------------------------------------------------
variable nmoves equal ${nmincrement}
variable nmoves equal 16

variable 	disordercounter equal ${disincrement}
variable 	disordercounter equal 16

# ------- To stop when sufficiently disordered, reset counters -------------

if		"${disordercounter} == ${disorder}" then 		"variable kT equal $T" 		"variable dismoves equal ${nmoves}" 		"variable disaccept equal ${naccept}"
#--------------------------------------------------------------------------

if		"${disordercounter} > ${disorder}" then 		'variable totnmoves equal "v_nmoves - v_dismoves"' 		'variable totnaccept equal "v_naccept - v_disaccept"' 		'variable ratio equal "100*v_totnaccept/v_totnmoves"' 		'print "moves = ${totnmoves} Ratio of accepted/Total = ${ratio} %"'
next 		iter_sitemax
jump 		SELF loop_allsites
variable iter_sitemax loop 288

#print "initial kt ${kT}"
variable        i equal ${irandom}
variable        i equal 196

# 0 for even, take away one to get lower layer
# !=0 for odd, add one to get upper layer
if		"${atomid} == 0" then                   "variable layeri equal ${loweri} "                 else                   "variable layeri equal ${upperi} "
variable layeri equal ${loweri} 
variable layeri equal 195 
variable        z0 equal ${zi}
variable        z0 equal 2.106
variable        y0 equal ${yi}
variable        y0 equal 16.848

variable 	zupdate equal ${znew}
variable 	zupdate equal 2.26435654735565
variable 	yupdate equal ${ynew}
variable 	yupdate equal 17.3286439876556

# ---------------- Update pair of atoms (columns)-----------------
set             atom $i z ${zupdate}
set             atom 196 z ${zupdate}
set             atom 196 z 2.26435654735565
  1 settings made for z
set             atom $i y ${yupdate}
set             atom 196 y ${yupdate}
set             atom 196 y 17.3286439876556
  1 settings made for y

set             atom ${layeri} z ${zupdate}
set             atom 195 z ${zupdate}
set             atom 195 z 2.26435654735565
  1 settings made for z
set             atom ${layeri} y ${yupdate}
set             atom 195 y ${yupdate}
set             atom 195 y 17.3286439876556
  1 settings made for y
#--------------------------------------------------------------
print "$e ${elast}"
-5911.8573015356 -5925.67122146364
#variable epe equal findpe
run 1 post no
WARNING: No fixes defined, atoms won't move (../verlet.cpp:55)
PPPM initialization ...
WARNING: Using polynomial approximation for long-range coulomb (../kspace.cpp:316)
  G vector (1/distance) = 0.384915
  grid = 8 24 24
  stencil order = 5
  estimated absolute RMS force accuracy = 0.00143553
  estimated relative force accuracy = 9.96919e-05
  using double precision FFTs
  3d grid and FFT values/proc = 10933 4608
Memory usage per processor = 5.16842 Mbytes
Step Temp E_pair E_mol TotEng Press 
      16            0   -5921.9704            0   -5921.9704    6433.9856 
      17            0   -5921.9704            0   -5921.9704    6433.9856 
Loop time of 0.0132279 on 1 procs for 1 steps with 288 atoms

99.4% CPU use with 1 MPI tasks x 1 OpenMP threads
#compute findpe all pe
#print "${epe}"
#--------------------- Energy check ------------------------
variable 	rand equal ${rn}
variable 	rand equal 0.705874741077423
print "$e ${elast}"
-5921.97039269926 -5925.67122146364
if              "$e <= ${elast}" then                   "variable elast equal $e"                   "variable naccept equal ${increment}" 		  "run 1 post no"                 elif "${rand} <= ${boltzfactor}"                   "variable elast equal $e"                   "variable naccept equal ${increment}" 		  "run 1 post no"                 else                   "set atom $i z ${z0}"                   "set atom $i y ${y0}"                   "set atom ${layeri} z ${z0}"                   "set atom ${layeri} y ${y0}"
set atom $i z ${z0}
set atom 196 z ${z0}
set atom 196 z 2.106
  1 settings made for z
set atom $i y ${y0}
set atom 196 y ${y0}
set atom 196 y 16.848
  1 settings made for y
set atom ${layeri} z ${z0}
set atom 195 z ${z0}
set atom 195 z 2.106
  1 settings made for z
set atom ${layeri} y ${y0}
set atom 195 y ${y0}
set atom 195 y 16.848
  1 settings made for y
#run 1 post no
#--------------------------------------------------------------
variable nmoves equal ${nmincrement}
variable nmoves equal 17

variable 	disordercounter equal ${disincrement}
variable 	disordercounter equal 17

# ------- To stop when sufficiently disordered, reset counters -------------

if		"${disordercounter} == ${disorder}" then 		"variable kT equal $T" 		"variable dismoves equal ${nmoves}" 		"variable disaccept equal ${naccept}"
#--------------------------------------------------------------------------

if		"${disordercounter} > ${disorder}" then 		'variable totnmoves equal "v_nmoves - v_dismoves"' 		'variable totnaccept equal "v_naccept - v_disaccept"' 		'variable ratio equal "100*v_totnaccept/v_totnmoves"' 		'print "moves = ${totnmoves} Ratio of accepted/Total = ${ratio} %"'
next 		iter_sitemax
jump 		SELF loop_allsites
variable iter_sitemax loop 288

#print "initial kt ${kT}"
variable        i equal ${irandom}
variable        i equal 266

# 0 for even, take away one to get lower layer
# !=0 for odd, add one to get upper layer
if		"${atomid} == 0" then                   "variable layeri equal ${loweri} "                 else                   "variable layeri equal ${upperi} "
variable layeri equal ${loweri} 
variable layeri equal 265 
variable        z0 equal ${zi}
variable        z0 equal 0
variable        y0 equal ${yi}
variable        y0 equal 23.166

variable 	zupdate equal ${znew}
variable 	zupdate equal 0.873459577560425
variable 	yupdate equal ${ynew}
variable 	yupdate equal 22.8347915325165

# ---------------- Update pair of atoms (columns)-----------------
set             atom $i z ${zupdate}
set             atom 266 z ${zupdate}
set             atom 266 z 0.873459577560425
  1 settings made for z
set             atom $i y ${yupdate}
set             atom 266 y ${yupdate}
set             atom 266 y 22.8347915325165
  1 settings made for y

set             atom ${layeri} z ${zupdate}
set             atom 265 z ${zupdate}
set             atom 265 z 0.873459577560425
  1 settings made for z
set             atom ${layeri} y ${yupdate}
set             atom 265 y ${yupdate}
set             atom 265 y 22.8347915325165
  1 settings made for y
#--------------------------------------------------------------
print "$e ${elast}"
-5921.97039269926 -5925.67122146364
#variable epe equal findpe
run 1 post no
WARNING: No fixes defined, atoms won't move (../verlet.cpp:55)
PPPM initialization ...
WARNING: Using polynomial approximation for long-range coulomb (../kspace.cpp:316)
  G vector (1/distance) = 0.384915
  grid = 8 24 24
  stencil order = 5
  estimated absolute RMS force accuracy = 0.00143553
  estimated relative force accuracy = 9.96919e-05
  using double precision FFTs
  3d grid and FFT values/proc = 10933 4608
Memory usage per processor = 5.16842 Mbytes
Step Temp E_pair E_mol TotEng Press 
      17            0   -5905.5362            0   -5905.5362    23379.881 
      18            0   -5905.5362            0   -5905.5362    23379.881 
[...]
-5836.01151895447 -5860.18865596094
#variable epe equal findpe
run 1 post no
WARNING: No fixes defined, atoms won't move (../verlet.cpp:55)
PPPM initialization ...
WARNING: Using polynomial approximation for long-range coulomb (../kspace.cpp:316)
  G vector (1/distance) = 0.384915
  grid = 8 24 24
  stencil order = 5
  estimated absolute RMS force accuracy = 0.00143553
  estimated relative force accuracy = 9.96919e-05
  using double precision FFTs
  3d grid and FFT values/proc = 10933 4608
Memory usage per processor = 5.16842 Mbytes
Step Temp E_pair E_mol TotEng Press 
     129            0    -5857.967            0    -5857.967    95194.532 
     130            0    -5857.967            0    -5857.967    95194.532 
Loop time of 0.0134602 on 1 procs for 1 steps with 288 atoms

99.6% CPU use with 1 MPI tasks x 1 OpenMP threads
#compute findpe all pe
#print "${epe}"
#--------------------- Energy check ------------------------
variable 	rand equal ${rn}
variable 	rand equal 0.158200800418854
print "$e ${elast}"
-5857.96699689681 -5860.18865596094
if              "$e <= ${elast}" then                   "variable elast equal $e"                   "variable naccept equal ${increment}" 		  "run 1 post no"                 elif "${rand} <= ${boltzfactor}"                   "variable elast equal $e"                   "variable naccept equal ${increment}" 		  "run 1 post no"                 else                   "set atom $i z ${z0}"                   "set atom $i y ${y0}"                   "set atom ${layeri} z ${z0}"                   "set atom ${layeri} y ${y0}"
variable elast equal $e
variable elast equal -5857.96699689681
variable naccept equal ${increment}
variable naccept equal 21
run 1 post no
WARNING: No fixes defined, atoms won't move (../verlet.cpp:55)
PPPM initialization ...
WARNING: Using polynomial approximation for long-range coulomb (../kspace.cpp:316)
  G vector (1/distance) = 0.384915
  grid = 8 24 24
  stencil order = 5
  estimated absolute RMS force accuracy = 0.00143553
  estimated relative force accuracy = 9.96919e-05
  using double precision FFTs
  3d grid and FFT values/proc = 10933 4608
Memory usage per processor = 5.16842 Mbytes
Step Temp E_pair E_mol TotEng Press 
     130            0    -5857.967            0    -5857.967    95194.532 
     131            0    -5857.967            0    -5857.967    95194.532 
Loop time of 0.0131159 on 1 procs for 1 steps with 288 atoms

99.6% CPU use with 1 MPI tasks x 1 OpenMP threads
#run 1 post no
#--------------------------------------------------------------
variable nmoves equal ${nmincrement}
variable nmoves equal 110

variable 	disordercounter equal ${disincrement}
variable 	disordercounter equal 110

# ------- To stop when sufficiently disordered, reset counters -------------

if		"${disordercounter} == ${disorder}" then 		"variable kT equal $T" 		"variable dismoves equal ${nmoves}" 		"variable disaccept equal ${naccept}"
#--------------------------------------------------------------------------

if		"${disordercounter} > ${disorder}" then 		'variable totnmoves equal "v_nmoves - v_dismoves"' 		'variable totnaccept equal "v_naccept - v_disaccept"' 		'variable ratio equal "100*v_totnaccept/v_totnmoves"' 		'print "moves = ${totnmoves} Ratio of accepted/Total = ${ratio} %"'
next 		iter_sitemax
jump 		SELF loop_allsites
variable iter_sitemax loop 288

#print "initial kt ${kT}"
variable        i equal ${irandom}
variable        i equal 67

# 0 for even, take away one to get lower layer
# !=0 for odd, add one to get upper layer
if		"${atomid} == 0" then                   "variable layeri equal ${loweri} "                 else                   "variable layeri equal ${upperi} "
variable layeri equal ${upperi} 
variable layeri equal 68 
variable        z0 equal ${zi}
variable        z0 equal 18.7379710712433
variable        y0 equal ${yi}
variable        y0 equal 4.36123202991486

variable 	zupdate equal ${znew}
variable 	zupdate equal 19.1090410985947
variable 	yupdate equal ${ynew}
variable 	yupdate equal 3.48147700977326

# ---------------- Update pair of atoms (columns)-----------------
set             atom $i z ${zupdate}
set             atom 67 z ${zupdate}
set             atom 67 z 19.1090410985947
  1 settings made for z
set             atom $i y ${yupdate}
set             atom 67 y ${yupdate}
set             atom 67 y 3.48147700977326
  1 settings made for y

set             atom ${layeri} z ${zupdate}
set             atom 68 z ${zupdate}
set             atom 68 z 19.1090410985947
  1 settings made for z
set             atom ${layeri} y ${yupdate}
set             atom 68 y ${yupdate}
set             atom 68 y 3.48147700977326
  1 settings made for y
#--------------------------------------------------------------
print "$e ${elast}"
-5857.96699689681 -5857.96699689681
#variable epe equal findpe
run 1 post no
WARNING: No fixes defined, atoms won't move (../verlet.cpp:55)
PPPM initialization ...
WARNING: Using polynomial approximation for long-range coulomb (../kspace.cpp:316)
  G vector (1/distance) = 0.384915
  grid = 8 24 24
  stencil order = 5
  estimated absolute RMS force accuracy = 0.00143553
  estimated relative force accuracy = 9.96919e-05
  using double precision FFTs
  3d grid and FFT values/proc = 10933 4608
Memory usage per processor = 5.16842 Mbytes
Step Temp E_pair E_mol TotEng Press 
     131            0   -5846.2873            0   -5846.2873     108792.6 
     132            0   -5846.2873            0   -5846.2873     108792.6 
Loop time of 0.012974 on 1 procs for 1 steps with 288 atoms

100.1% CPU use with 1 MPI tasks x 1 OpenMP threads
#compute findpe all pe
#print "${epe}"
#--------------------- Energy check ------------------------
variable 	rand equal ${rn}
variable 	rand equal 0.190449893474579
print "$e ${elast}"
-5846.28732431836 -5857.96699689681
if              "$e <= ${elast}" then                   "variable elast equal $e"                   "variable naccept equal ${increment}" 		  "run 1 post no"                 elif "${rand} <= ${boltzfactor}"                   "variable elast equal $e"                   "variable naccept equal ${increment}" 		  "run 1 post no"                 else                   "set atom $i z ${z0}"                   "set atom $i y ${y0}"                   "set atom ${layeri} z ${z0}"                   "set atom ${layeri} y ${y0}"
set atom $i z ${z0}
set atom 67 z ${z0}
set atom 67 z 18.7379710712433
  1 settings made for z
set atom $i y ${y0}
set atom 67 y ${y0}
set atom 67 y 4.36123202991486
  1 settings made for y
set atom ${layeri} z ${z0}
set atom 68 z ${z0}
set atom 68 z 18.7379710712433
  1 settings made for z
set atom ${layeri} y ${y0}
set atom 68 y ${y0}
set atom 68 y 4.36123202991486
  1 settings made for y
#run 1 post no
#--------------------------------------------------------------
variable nmoves equal ${nmincrement}
variable nmoves equal 111

variable 	disordercounter equal ${disincrement}
variable 	disordercounter equal 111

# ------- To stop when sufficiently disordered, reset counters -------------

if		"${disordercounter} == ${disorder}" then 		"variable kT equal $T" 		"variable dismoves equal ${nmoves}" 		"variable disaccept equal ${naccept}"
#--------------------------------------------------------------------------

if		"${disordercounter} > ${disorder}" then 		'variable totnmoves equal "v_nmoves - v_dismoves"' 		'variable totnaccept equal "v_naccept - v_disaccept"' 		'variable ratio equal "100*v_totnaccept/v_totnmoves"' 		'print "moves = ${totnmoves} Ratio of accepted/Total = ${ratio} %"'
next 		iter_sitemax
jump 		SELF loop_allsites
variable iter_sitemax loop 288

#print "initial kt ${kT}"
variable        i equal ${irandom}
variable        i equal 264

# 0 for even, take away one to get lower layer
# !=0 for odd, add one to get upper layer
if		"${atomid} == 0" then                   "variable layeri equal ${loweri} "                 else                   "variable layeri equal ${upperi} "
variable layeri equal ${loweri} 
variable layeri equal 263 
variable        z0 equal ${zi}
variable        z0 equal 23.166
variable        y0 equal ${yi}
variable        y0 equal 21.06

variable 	zupdate equal ${znew}
variable 	zupdate equal 22.7057856235504
variable 	yupdate equal ${ynew}
variable 	yupdate equal 20.4070001220703

# ---------------- Update pair of atoms (columns)-----------------
set             atom $i z ${zupdate}
set             atom 264 z ${zupdate}
set             atom 264 z 22.7057856235504
  1 settings made for z
set             atom $i y ${yupdate}
set             atom 264 y ${yupdate}
set             atom 264 y 20.4070001220703
  1 settings made for y

set             atom ${layeri} z ${zupdate}
set             atom 263 z ${zupdate}
set             atom 263 z 22.7057856235504
  1 settings made for z
set             atom ${layeri} y ${yupdate}
set             atom 263 y ${yupdate}
set             atom 263 y 20.4070001220703
  1 settings made for y
#--------------------------------------------------------------
print "$e ${elast}"
-5846.28732431836 -5857.96699689681
#variable epe equal findpe
run 1 post no
WARNING: No fixes defined, atoms won't move (../verlet.cpp:55)
PPPM initialization ...
WARNING: Using polynomial approximation for long-range coulomb (../kspace.cpp:316)
  G vector (1/distance) = 0.384915
  grid = 8 24 24
  stencil order = 5
  estimated absolute RMS force accuracy = 0.00143553
  estimated relative force accuracy = 9.96919e-05
  using double precision FFTs
  3d grid and FFT values/proc = 10933 4608
Memory usage per processor = 5.16842 Mbytes
Step Temp E_pair E_mol TotEng Press 
     132            0   -5848.8305            0   -5848.8305    107655.38 
     133            0   -5848.8305            0   -5848.8305    107655.38 
Loop time of 0.012924 on 1 procs for 1 steps with 288 atoms

99.7% CPU use with 1 MPI tasks x 1 OpenMP threads
#compute findpe all pe
#print "${epe}"
#--------------------- Energy check ------------------------
variable 	rand equal ${rn}
variable 	rand equal 0.36866283416748
print "$e ${elast}"
-5848.83046469215 -5857.96699689681
if              "$e <= ${elast}" then                   "variable elast equal $e"                   "variable naccept equal ${increment}" 		  "run 1 post no"                 elif "${rand} <= ${boltzfactor}"                   "variable elast equal $e"                   "variable naccept equal ${increment}" 		  "run 1 post no"                 else                   "set atom $i z ${z0}"                   "set atom $i y ${y0}"                   "set atom ${layeri} z ${z0}"                   "set atom ${layeri} y ${y0}"
set atom $i z ${z0}
set atom 264 z ${z0}
set atom 264 z 23.166
  1 settings made for z
set atom $i y ${y0}
set atom 264 y ${y0}
set atom 264 y 21.06
  1 settings made for y
set atom ${layeri} z ${z0}
set atom 263 z ${z0}
set atom 263 z 23.166
  1 settings made for z
set atom ${layeri} y ${y0}
set atom 263 y ${y0}
set atom 263 y 21.06
  1 settings made for y
#run 1 post no
#--------------------------------------------------------------
variable nmoves equal ${nmincrement}
variable nmoves equal 112

variable 	disordercounter equal ${disincrement}
variable 	disordercounter equal 112

# ------- To stop when sufficiently disordered, reset counters -------------

if		"${disordercounter} == ${disorder}" then 		"variable kT equal $T" 		"variable dismoves equal ${nmoves}" 		"variable disaccept equal ${naccept}"
#--------------------------------------------------------------------------

if		"${disordercounter} > ${disorder}" then 		'variable totnmoves equal "v_nmoves - v_dismoves"' 		'variable totnaccept equal "v_naccept - v_disaccept"' 		'variable ratio equal "100*v_totnaccept/v_totnmoves"' 		'print "moves = ${totnmoves} Ratio of accepted/Total = ${ratio} %"'
next 		iter_sitemax
jump 		SELF loop_allsites
variable iter_sitemax loop 288

#print "initial kt ${kT}"
variable        i equal ${irandom}
variable        i equal 114

# 0 for even, take away one to get lower layer
# !=0 for odd, add one to get upper layer
if		"${atomid} == 0" then                   "variable layeri equal ${loweri} "                 else                   "variable layeri equal ${upperi} "
variable layeri equal ${loweri} 
variable layeri equal 113 
variable        z0 equal ${zi}
variable        z0 equal 16.848
variable        y0 equal ${yi}
variable        y0 equal 8.424

variable 	zupdate equal ${znew}
variable 	zupdate equal 16.4161859254837
variable 	yupdate equal ${ynew}
variable 	yupdate equal 7.51353189849853

# ---------------- Update pair of atoms (columns)-----------------
set             atom $i z ${zupdate}
set             atom 114 z ${zupdate}
set             atom 114 z 16.4161859254837
  1 settings made for z
set             atom $i y ${yupdate}
set             atom 114 y ${yupdate}
set             atom 114 y 7.51353189849853
  1 settings made for y

set             atom ${layeri} z ${zupdate}
set             atom 113 z ${zupdate}
set             atom 113 z 16.4161859254837
  1 settings made for z
set             atom ${layeri} y ${yupdate}
set             atom 113 y ${yupdate}
set             atom 113 y 7.51353189849853
  1 settings made for y
#--------------------------------------------------------------
print "$e ${elast}"
-5848.83046469215 -5857.96699689681
#variable epe equal findpe
run 1 post no
WARNING: No fixes defined, atoms won't move (../verlet.cpp:55)
PPPM initialization ...
WARNING: Using polynomial approximation for long-range coulomb (../kspace.cpp:316)
  G vector (1/distance) = 0.384915
  grid = 8 24 24
  stencil order = 5
  estimated absolute RMS force accuracy = 0.00143553
  estimated relative force accuracy = 9.96919e-05
  using double precision FFTs
  3d grid and FFT values/proc = 10933 4608
Memory usage per processor = 5.16842 Mbytes
Step Temp E_pair E_mol TotEng Press 
     133            0   -5817.9051            0   -5817.9051    133656.53 
     134            0   -5817.9051            0   -5817.9051    133656.53 
Loop time of 0.013006 on 1 procs for 1 steps with 288 atoms

99.7% CPU use with 1 MPI tasks x 1 OpenMP threads
#compute findpe all pe
#print "${epe}"
#--------------------- Energy check ------------------------
variable 	rand equal ${rn}
variable 	rand equal 0.362793803215027
print "$e ${elast}"
-5817.90513825917 -5857.96699689681
if              "$e <= ${elast}" then                   "variable elast equal $e"                   "variable naccept equal ${increment}" 		  "run 1 post no"                 elif "${rand} <= ${boltzfactor}"                   "variable elast equal $e"                   "variable naccept equal ${increment}" 		  "run 1 post no"                 else                   "set atom $i z ${z0}"                   "set atom $i y ${y0}"                   "set atom ${layeri} z ${z0}"                   "set atom ${layeri} y ${y0}"
set atom $i z ${z0}
set atom 114 z ${z0}
set atom 114 z 16.848
  1 settings made for z
set atom $i y ${y0}
set atom 114 y ${y0}
set atom 114 y 8.424
  1 settings made for y
set atom ${layeri} z ${z0}
set atom 113 z ${z0}
set atom 113 z 16.848
  1 settings made for z
set atom ${layeri} y ${y0}
set atom 113 y ${y0}
set atom 113 y 8.424
  1 settings made for y
#run 1 post no
#--------------------------------------------------------------
variable nmoves equal ${nmincrement}
variable nmoves equal 113

variable 	disordercounter equal ${disincrement}
variable 	disordercounter equal 113

# ------- To stop when sufficiently disordered, reset counters -------------

if		"${disordercounter} == ${disorder}" then 		"variable kT equal $T" 		"variable dismoves equal ${nmoves}" 		"variable disaccept equal ${naccept}"
#--------------------------------------------------------------------------

if		"${disordercounter} > ${disorder}" then 		'variable totnmoves equal "v_nmoves - v_dismoves"' 		'variable totnaccept equal "v_naccept - v_disaccept"' 		'variable ratio equal "100*v_totnaccept/v_totnmoves"' 		'print "moves = ${totnmoves} Ratio of accepted/Total = ${ratio} %"'
next 		iter_sitemax
jump 		SELF loop_allsites
variable iter_sitemax loop 288

#print "initial kt ${kT}"
variable        i equal ${irandom}
variable        i equal 96

# 0 for even, take away one to get lower layer
# !=0 for odd, add one to get upper layer
if		"${atomid} == 0" then                   "variable layeri equal ${loweri} "                 else                   "variable layeri equal ${upperi} "
variable layeri equal ${loweri} 
variable layeri equal 95 
variable        z0 equal ${zi}
variable        z0 equal 23.166
variable        y0 equal ${yi}
variable        y0 equal 6.318

variable 	zupdate equal ${znew}
variable 	zupdate equal 22.9404896411896
variable 	yupdate equal ${ynew}
variable 	yupdate equal 6.39647499847412

# ---------------- Update pair of atoms (columns)-----------------
set             atom $i z ${zupdate}
set             atom 96 z ${zupdate}
set             atom 96 z 22.9404896411896
  1 settings made for z
set             atom $i y ${yupdate}
set             atom 96 y ${yupdate}
set             atom 96 y 6.39647499847412
  1 settings made for y

set             atom ${layeri} z ${zupdate}
set             atom 95 z ${zupdate}
set             atom 95 z 22.9404896411896
  1 settings made for z
set             atom ${layeri} y ${yupdate}
set             atom 95 y ${yupdate}
set             atom 95 y 6.39647499847412
  1 settings made for y
#--------------------------------------------------------------
print "$e ${elast}"
-5817.90513825917 -5857.96699689681
#variable epe equal findpe
run 1 post no
WARNING: No fixes defined, atoms won't move (../verlet.cpp:55)
PPPM initialization ...
WARNING: Using polynomial approximation for long-range coulomb (../kspace.cpp:316)
  G vector (1/distance) = 0.384915
  grid = 8 24 24
  stencil order = 5
  estimated absolute RMS force accuracy = 0.00143553
  estimated relative force accuracy = 9.96919e-05
  using double precision FFTs
  3d grid and FFT values/proc = 10933 4608
Memory usage per processor = 5.16842 Mbytes
Step Temp E_pair E_mol TotEng Press 
     134            0   -5857.2736            0   -5857.2736    96347.238 
     135            0   -5857.2736            0   -5857.2736    96347.238 
Loop time of 0.0139279 on 1 procs for 1 steps with 288 atoms

100.0% CPU use with 1 MPI tasks x 1 OpenMP threads
#compute findpe all pe
#print "${epe}"
#--------------------- Energy check ------------------------
variable 	rand equal ${rn}
variable 	rand equal 0.408713102340698
print "$e ${elast}"
-5857.27360376569 -5857.96699689681
if              "$e <= ${elast}" then                   "variable elast equal $e"                   "variable naccept equal ${increment}" 		  "run 1 post no"                 elif "${rand} <= ${boltzfactor}"                   "variable elast equal $e"                   "variable naccept equal ${increment}" 		  "run 1 post no"                 else                   "set atom $i z ${z0}"                   "set atom $i y ${y0}"                   "set atom ${layeri} z ${z0}"                   "set atom ${layeri} y ${y0}"
variable elast equal $e
variable elast equal -5857.27360376569
variable naccept equal ${increment}
variable naccept equal 22
run 1 post no
WARNING: No fixes defined, atoms won't move (../verlet.cpp:55)
PPPM initialization ...
WARNING: Using polynomial approximation for long-range coulomb (../kspace.cpp:316)
  G vector (1/distance) = 0.384915
  grid = 8 24 24
  stencil order = 5
  estimated absolute RMS force accuracy = 0.00143553
  estimated relative force accuracy = 9.96919e-05
  using double precision FFTs
  3d grid and FFT values/proc = 10933 4608
Memory usage per processor = 5.16842 Mbytes
Step Temp E_pair E_mol TotEng Press 
     135            0   -5857.2736            0   -5857.2736    96347.238 
     136            0   -5857.2736            0   -5857.2736    96347.238 
Loop time of 0.0134671 on 1 procs for 1 steps with 288 atoms

99.3% CPU use with 1 MPI tasks x 1 OpenMP threads
