LAMMPS (18 Jun 2016-ICMS)
WARNING: OMP_NUM_THREADS environment is not set. (../comm.cpp:90)
  using 1 OpenMP thread(s) per MPI task
Optimise lattice constant of MgO crystal
Created orthogonal box = (0 0 0) to (4.212 25.272 25.272)
  1 by 1 by 2 MPI processor grid
Scanning dump file ...
Reading snapshot from dump file ...
  orthogonal box = (0 0 0) to (4.212 25.272 25.272)
  0 atoms before read
  288 atoms in snapshot
  0 atoms purged
  0 atoms replaced
  0 atoms trimmed
  288 atoms added
  288 atoms after read
Setting atom values ...
  144 settings made for charge
Setting atom values ...
  144 settings made for charge
WARNING: No fixes defined, atoms won't move (../verlet.cpp:55)
PPPM initialization ...
WARNING: Using polynomial approximation for long-range coulomb (../kspace.cpp:316)
  G vector (1/distance) = 0.384915
  grid = 8 24 24
  stencil order = 5
  estimated absolute RMS force accuracy = 0.00143553
  estimated relative force accuracy = 9.96919e-05
  using double precision FFTs
  3d grid and FFT values/proc = 10013 2304
Neighbor list info ...
  2 neighbor list requests
  update every 1 steps, delay 0 steps, check yes
  max neighbors/atom: 2000, page size: 100000
  master list distance cutoff = 10
  ghost atom cutoff = 10
  binsize = 5, bins = 1 6 6
Setting up Verlet run ...
  Unit style    : metal
  Current step  : 0
  Time step     : 0.001
Memory usage per processor = 3.67977 Mbytes
Step Temp E_pair E_mol TotEng Press 
       0            0   -5925.6712            0   -5925.6712    802.88982 
Loop time of 2.14577e-05 on 2 procs for 0 steps with 288 atoms

67.6% CPU use with 2 MPI tasks x 1 OpenMP threads
Setting atom values ...
  288 settings made for z
Setting atom values ...
  288 settings made for y
WARNING: No fixes defined, atoms won't move (../verlet.cpp:55)
PPPM initialization ...
WARNING: Using polynomial approximation for long-range coulomb (../kspace.cpp:316)
  G vector (1/distance) = 0.384915
  grid = 8 24 24
  stencil order = 5
  estimated absolute RMS force accuracy = 0.00143553
  estimated relative force accuracy = 9.96919e-05
  using double precision FFTs
  3d grid and FFT values/proc = 10013 2304
Setting up Verlet run ...
  Unit style    : metal
  Current step  : 0
  Time step     : 0.001
Memory usage per processor = 4.93526 Mbytes
Step Temp E_pair E_mol TotEng Press 
       0            0   -5925.6712            0   -5925.6712    802.88982 
Loop time of 1.90735e-05 on 2 procs for 0 steps with 288 atoms

0.0% CPU use with 2 MPI tasks x 1 OpenMP threads
Setting atom values ...
  1 settings made for z
Setting atom values ...
  1 settings made for y
Setting atom values ...
  1 settings made for z
Setting atom values ...
  1 settings made for y
WARNING: No fixes defined, atoms won't move (../verlet.cpp:55)
PPPM initialization ...
WARNING: Using polynomial approximation for long-range coulomb (../kspace.cpp:316)
  G vector (1/distance) = 0.384915
  grid = 8 24 24
  stencil order = 5
  estimated absolute RMS force accuracy = 0.00143553
  estimated relative force accuracy = 9.96919e-05
  using double precision FFTs
  3d grid and FFT values/proc = 10013 2304
Setting up Verlet run ...
  Unit style    : metal
  Current step  : 0
  Time step     : 0.001
Memory usage per processor = 4.93526 Mbytes
Step Temp E_pair E_mol TotEng Press 
       0            0         -nan            0         -nan         -nan 
Loop time of 2.14577e-05 on 2 procs for 0 steps with 288 atoms

9.3% CPU use with 2 MPI tasks x 1 OpenMP threads
ERROR: Invalid Boolean syntax in if command (../variable.cpp:4601)
