LAMMPS (18 Jun 2016-ICMS)
WARNING: OMP_NUM_THREADS environment is not set. (../comm.cpp:90)
  using 1 OpenMP thread(s) per MPI task
Optimise lattice constant of MgO crystal
Created orthogonal box = (0 0 0) to (4.212 12.636 12.636)
  1 by 1 by 1 MPI processor grid
Scanning dump file ...
Reading snapshot from dump file ...
  orthogonal box = (0 0 0) to (4.212 12.636 12.636)
  0 atoms before read
  72 atoms in snapshot
  0 atoms purged
  0 atoms replaced
  0 atoms trimmed
  72 atoms added
  72 atoms after read
Setting atom values ...
  36 settings made for charge
Setting atom values ...
  36 settings made for charge
WARNING: No fixes defined, atoms won't move (../verlet.cpp:55)
PPPM initialization ...
WARNING: Using polynomial approximation for long-range coulomb (../kspace.cpp:316)
  G vector (1/distance) = 0.400041
  grid = 8 15 15
  stencil order = 5
  estimated absolute RMS force accuracy = 0.000671313
  estimated relative force accuracy = 4.66201e-05
  using double precision FFTs
  3d grid and FFT values/proc = 8228 1800
Neighbor list info ...
  2 neighbor list requests
  update every 1 steps, delay 0 steps, check yes
  max neighbors/atom: 2000, page size: 100000
  master list distance cutoff = 10
  ghost atom cutoff = 10
  binsize = 5, bins = 1 3 3
Setting up Verlet run ...
  Unit style    : metal
  Current step  : 0
  Time step     : 0.001
Memory usage per processor = 4.38445 Mbytes
Step Temp E_pair E_mol TotEng Press 
       0            0   -1481.4266            0   -1481.4266    672.06402 
Loop time of 2.86102e-06 on 1 procs for 0 steps with 72 atoms

69.9% CPU use with 1 MPI tasks x 1 OpenMP threads
Setting atom values ...
  72 settings made for z
Setting atom values ...
  72 settings made for y
WARNING: No fixes defined, atoms won't move (../verlet.cpp:55)
PPPM initialization ...
WARNING: Using polynomial approximation for long-range coulomb (../kspace.cpp:316)
  G vector (1/distance) = 0.400041
  grid = 8 15 15
  stencil order = 5
  estimated absolute RMS force accuracy = 0.000671313
  estimated relative force accuracy = 4.66201e-05
  using double precision FFTs
  3d grid and FFT values/proc = 8228 1800
Setting up Verlet run ...
  Unit style    : metal
  Current step  : 0
  Time step     : 0.001
Memory usage per processor = 5.63719 Mbytes
Step Temp E_pair E_mol TotEng Press 
       0            0   -1481.4266            0   -1481.4266    672.06402 
Loop time of 1.90735e-06 on 1 procs for 0 steps with 72 atoms

0.0% CPU use with 1 MPI tasks x 1 OpenMP threads
-1481.42658366852 1000
Setting atom values ...
  1 settings made for z
Setting atom values ...
  1 settings made for y
Setting atom values ...
  1 settings made for z
Setting atom values ...
  1 settings made for y
WARNING: No fixes defined, atoms won't move (../verlet.cpp:55)
PPPM initialization ...
WARNING: Using polynomial approximation for long-range coulomb (../kspace.cpp:316)
  G vector (1/distance) = 0.400041
  grid = 8 15 15
  stencil order = 5
  estimated absolute RMS force accuracy = 0.000671313
  estimated relative force accuracy = 4.66201e-05
  using double precision FFTs
  3d grid and FFT values/proc = 8228 1800
Setting up Verlet run ...
  Unit style    : metal
  Current step  : 0
  Time step     : 0.001
Memory usage per processor = 5.63719 Mbytes
Step Temp E_pair E_mol TotEng Press 
       0            0   -1293.3057            0   -1293.3057    417930.54 
Loop time of 1.90735e-06 on 1 procs for 0 steps with 72 atoms

0.0% CPU use with 1 MPI tasks x 1 OpenMP threads
1.31102551103947e-06 1000
-1481.42658366852 -1481.42658366852 -1293.30573791643
not skipped
Setting atom values ...
  1 settings made for z
Setting atom values ...
  1 settings made for y
Setting atom values ...
  1 settings made for z
Setting atom values ...
  1 settings made for y
-1293.30573791643 1000
Setting atom values ...
  1 settings made for z
Setting atom values ...
  1 settings made for y
Setting atom values ...
  1 settings made for z
Setting atom values ...
  1 settings made for y
WARNING: No fixes defined, atoms won't move (../verlet.cpp:55)
PPPM initialization ...
WARNING: Using polynomial approximation for long-range coulomb (../kspace.cpp:316)
  G vector (1/distance) = 0.400041
  grid = 8 15 15
  stencil order = 5
  estimated absolute RMS force accuracy = 0.000671313
  estimated relative force accuracy = 4.66201e-05
  using double precision FFTs
  3d grid and FFT values/proc = 8228 1800
Setting up Verlet run ...
  Unit style    : metal
  Current step  : 0
  Time step     : 0.001
Memory usage per processor = 5.63719 Mbytes
Step Temp E_pair E_mol TotEng Press 
       0            0   -841.10323            0   -841.10323     514018.4 
Loop time of 1.90735e-06 on 1 procs for 0 steps with 72 atoms

0.0% CPU use with 1 MPI tasks x 1 OpenMP threads
9.49728305559325e-21 1000
-1481.42658366852 -1481.42658366852 -841.103233816844
not skipped
Setting atom values ...
  1 settings made for z
Setting atom values ...
  1 settings made for y
Setting atom values ...
  1 settings made for z
Setting atom values ...
  1 settings made for y
-841.103233816844 1000
Setting atom values ...
  1 settings made for z
Setting atom values ...
  1 settings made for y
Setting atom values ...
  1 settings made for z
Setting atom values ...
  1 settings made for y
WARNING: No fixes defined, atoms won't move (../verlet.cpp:55)
PPPM initialization ...
WARNING: Using polynomial approximation for long-range coulomb (../kspace.cpp:316)
  G vector (1/distance) = 0.400041
  grid = 8 15 15
  stencil order = 5
  estimated absolute RMS force accuracy = 0.000671313
  estimated relative force accuracy = 4.66201e-05
  using double precision FFTs
  3d grid and FFT values/proc = 8228 1800
Setting up Verlet run ...
  Unit style    : metal
  Current step  : 0
  Time step     : 0.001
Memory usage per processor = 5.63719 Mbytes
Step Temp E_pair E_mol TotEng Press 
       0            0   -1457.0008            0   -1457.0008    108626.47 
Loop time of 1.90735e-06 on 1 procs for 0 steps with 72 atoms

0.0% CPU use with 1 MPI tasks x 1 OpenMP threads
0.172276538561624 1000
-1481.42658366852 -1481.42658366852 -1457.00082935002
not skipped
Setting atom values ...
  1 settings made for z
Setting atom values ...
  1 settings made for y
Setting atom values ...
  1 settings made for z
Setting atom values ...
  1 settings made for y
-1457.00082935002 1000
Setting atom values ...
  1 settings made for z
Setting atom values ...
  1 settings made for y
Setting atom values ...
  1 settings made for z
Setting atom values ...
  1 settings made for y
WARNING: No fixes defined, atoms won't move (../verlet.cpp:55)
PPPM initialization ...
WARNING: Using polynomial approximation for long-range coulomb (../kspace.cpp:316)
  G vector (1/distance) = 0.400041
  grid = 8 15 15
  stencil order = 5
  estimated absolute RMS force accuracy = 0.000671313
  estimated relative force accuracy = 4.66201e-05
  using double precision FFTs
  3d grid and FFT values/proc = 8228 1800
Setting up Verlet run ...
  Unit style    : metal
  Current step  : 0
  Time step     : 0.001
Memory usage per processor = 5.63719 Mbytes
Step Temp E_pair E_mol TotEng Press 
       0            0    -1363.787            0    -1363.787    325010.02 
Loop time of 1.90735e-06 on 1 procs for 0 steps with 72 atoms

0.0% CPU use with 1 MPI tasks x 1 OpenMP threads
0.000209653771046788 1000
-1481.42658366852 -1481.42658366852 -1363.78695731901
not skipped
Setting atom values ...
  1 settings made for z
Setting atom values ...
  1 settings made for y
Setting atom values ...
  1 settings made for z
Setting atom values ...
  1 settings made for y
-1363.78695731901 1000
Setting atom values ...
  1 settings made for z
Setting atom values ...
  1 settings made for y
Setting atom values ...
  1 settings made for z
Setting atom values ...
  1 settings made for y
WARNING: No fixes defined, atoms won't move (../verlet.cpp:55)
PPPM initialization ...
WARNING: Using polynomial approximation for long-range coulomb (../kspace.cpp:316)
  G vector (1/distance) = 0.400041
  grid = 8 15 15
  stencil order = 5
  estimated absolute RMS force accuracy = 0.000671313
  estimated relative force accuracy = 4.66201e-05
  using double precision FFTs
  3d grid and FFT values/proc = 8228 1800
Setting up Verlet run ...
  Unit style    : metal
  Current step  : 0
  Time step     : 0.001
Memory usage per processor = 5.63719 Mbytes
Step Temp E_pair E_mol TotEng Press 
       0            0   -1377.7667            0   -1377.7667    281211.31 
Loop time of 1.90735e-06 on 1 procs for 0 steps with 72 atoms

0.0% CPU use with 1 MPI tasks x 1 OpenMP threads
0.000573638114534322 1000
-1481.42658366852 -1481.42658366852 -1377.76669723861
not skipped
Setting atom values ...
  1 settings made for z
Setting atom values ...
  1 settings made for y
Setting atom values ...
  1 settings made for z
Setting atom values ...
  1 settings made for y
-1377.76669723861 1000
Setting atom values ...
  1 settings made for z
Setting atom values ...
  1 settings made for y
Setting atom values ...
  1 settings made for z
Setting atom values ...
  1 settings made for y
WARNING: No fixes defined, atoms won't move (../verlet.cpp:55)
PPPM initialization ...
WARNING: Using polynomial approximation for long-range coulomb (../kspace.cpp:316)
  G vector (1/distance) = 0.400041
  grid = 8 15 15
  stencil order = 5
  estimated absolute RMS force accuracy = 0.000671313
  estimated relative force accuracy = 4.66201e-05
  using double precision FFTs
  3d grid and FFT values/proc = 8228 1800
Setting up Verlet run ...
  Unit style    : metal
  Current step  : 0
  Time step     : 0.001
Memory usage per processor = 5.63719 Mbytes
Step Temp E_pair E_mol TotEng Press 
       0            0   -1279.6722            0   -1279.6722   -479025.97 
Loop time of 1.90735e-06 on 1 procs for 0 steps with 72 atoms

0.0% CPU use with 1 MPI tasks x 1 OpenMP threads
4.91249809571568e-07 1000
-1481.42658366852 -1481.42658366852 -1279.67223559347
not skipped
Setting atom values ...
  1 settings made for z
Setting atom values ...
  1 settings made for y
Setting atom values ...
  1 settings made for z
Setting atom values ...
  1 settings made for y
-1279.67223559347 1000
Setting atom values ...
  1 settings made for z
Setting atom values ...
  1 settings made for y
Setting atom values ...
  1 settings made for z
Setting atom values ...
  1 settings made for y
WARNING: No fixes defined, atoms won't move (../verlet.cpp:55)
PPPM initialization ...
WARNING: Using polynomial approximation for long-range coulomb (../kspace.cpp:316)
  G vector (1/distance) = 0.400041
  grid = 8 15 15
  stencil order = 5
  estimated absolute RMS force accuracy = 0.000671313
  estimated relative force accuracy = 4.66201e-05
  using double precision FFTs
  3d grid and FFT values/proc = 8228 1800
Setting up Verlet run ...
  Unit style    : metal
  Current step  : 0
  Time step     : 0.001
Memory usage per processor = 5.63719 Mbytes
Step Temp E_pair E_mol TotEng Press 
       0            0    -1431.108            0    -1431.108     184510.1 
Loop time of 1.90735e-06 on 1 procs for 0 steps with 72 atoms

0.0% CPU use with 1 MPI tasks x 1 OpenMP threads
0.0267041662070066 1000
-1481.42658366852 -1481.42658366852 -1431.10803244584
not skipped
Setting atom values ...
  1 settings made for z
Setting atom values ...
  1 settings made for y
Setting atom values ...
  1 settings made for z
Setting atom values ...
  1 settings made for y
-1431.10803244584 1000
Setting atom values ...
  1 settings made for z
Setting atom values ...
  1 settings made for y
Setting atom values ...
  1 settings made for z
Setting atom values ...
  1 settings made for y
WARNING: No fixes defined, atoms won't move (../verlet.cpp:55)
PPPM initialization ...
WARNING: Using polynomial approximation for long-range coulomb (../kspace.cpp:316)
  G vector (1/distance) = 0.400041
  grid = 8 15 15
  stencil order = 5
  estimated absolute RMS force accuracy = 0.000671313
  estimated relative force accuracy = 4.66201e-05
  using double precision FFTs
  3d grid and FFT values/proc = 8228 1800
Setting up Verlet run ...
  Unit style    : metal
  Current step  : 0
  Time step     : 0.001
Memory usage per processor = 5.63719 Mbytes
Step Temp E_pair E_mol TotEng Press 
       0            0   -1260.8486            0   -1260.8486    122698.79 
Loop time of 2.86102e-06 on 1 procs for 0 steps with 72 atoms

0.0% CPU use with 1 MPI tasks x 1 OpenMP threads
1.26678343161876e-07 1000
-1481.42658366852 -1481.42658366852 -1260.84860180344
not skipped
Setting atom values ...
  1 settings made for z
Setting atom values ...
  1 settings made for y
Setting atom values ...
  1 settings made for z
Setting atom values ...
  1 settings made for y
-1260.84860180344 1000
Setting atom values ...
  1 settings made for z
Setting atom values ...
  1 settings made for y
Setting atom values ...
  1 settings made for z
Setting atom values ...
  1 settings made for y
WARNING: No fixes defined, atoms won't move (../verlet.cpp:55)
PPPM initialization ...
WARNING: Using polynomial approximation for long-range coulomb (../kspace.cpp:316)
  G vector (1/distance) = 0.400041
  grid = 8 15 15
  stencil order = 5
  estimated absolute RMS force accuracy = 0.000671313
  estimated relative force accuracy = 4.66201e-05
  using double precision FFTs
  3d grid and FFT values/proc = 8228 1800
Setting up Verlet run ...
  Unit style    : metal
  Current step  : 0
  Time step     : 0.001
Memory usage per processor = 5.63719 Mbytes
Step Temp E_pair E_mol TotEng Press 
       0            0   -1445.4252            0   -1445.4252    143092.95 
Loop time of 3.09944e-06 on 1 procs for 0 steps with 72 atoms

0.0% CPU use with 1 MPI tasks x 1 OpenMP threads
0.0748625035972665 1000
-1481.42658366852 -1481.42658366852 -1445.42516514991
not skipped
Setting atom values ...
  1 settings made for z
Setting atom values ...
  1 settings made for y
Setting atom values ...
  1 settings made for z
Setting atom values ...
  1 settings made for y
-1445.42516514991 1000
Setting atom values ...
  1 settings made for z
Setting atom values ...
  1 settings made for y
Setting atom values ...
  1 settings made for z
Setting atom values ...
  1 settings made for y
WARNING: No fixes defined, atoms won't move (../verlet.cpp:55)
PPPM initialization ...
WARNING: Using polynomial approximation for long-range coulomb (../kspace.cpp:316)
  G vector (1/distance) = 0.400041
  grid = 8 15 15
  stencil order = 5
  estimated absolute RMS force accuracy = 0.000671313
  estimated relative force accuracy = 4.66201e-05
  using double precision FFTs
  3d grid and FFT values/proc = 8228 1800
Setting up Verlet run ...
  Unit style    : metal
  Current step  : 0
  Time step     : 0.001
Memory usage per processor = 5.63719 Mbytes
Step Temp E_pair E_mol TotEng Press 
       0            0   -44014.385            0   -44014.385 -2.1291443e+08 
Loop time of 2.14577e-06 on 1 procs for 0 steps with 72 atoms

0.0% CPU use with 1 MPI tasks x 1 OpenMP threads
inf 1000
-1481.42658366852 -1481.42658366852 -44014.3848732937
Setting atom values ...
  1 settings made for z
Setting atom values ...
  1 settings made for y
Setting atom values ...
  1 settings made for z
Setting atom values ...
  1 settings made for y
Rejected
-44014.3848732937 1000
Setting atom values ...
  1 settings made for z
Setting atom values ...
  1 settings made for y
Setting atom values ...
  1 settings made for z
Setting atom values ...
  1 settings made for y
WARNING: No fixes defined, atoms won't move (../verlet.cpp:55)
PPPM initialization ...
WARNING: Using polynomial approximation for long-range coulomb (../kspace.cpp:316)
  G vector (1/distance) = 0.400041
  grid = 8 15 15
  stencil order = 5
  estimated absolute RMS force accuracy = 0.000671313
  estimated relative force accuracy = 4.66201e-05
  using double precision FFTs
  3d grid and FFT values/proc = 8228 1800
Setting up Verlet run ...
  Unit style    : metal
  Current step  : 0
  Time step     : 0.001
Memory usage per processor = 5.63719 Mbytes
Step Temp E_pair E_mol TotEng Press 
       0            0   -1319.6683            0   -1319.6683     367192.2 
Loop time of 1.90735e-06 on 1 procs for 0 steps with 72 atoms

0.0% CPU use with 1 MPI tasks x 1 OpenMP threads
8.7487645377255e-06 1000
-1481.42658366852 -1481.42658366852 -1319.66827723446
not skipped
Setting atom values ...
  1 settings made for z
Setting atom values ...
  1 settings made for y
Setting atom values ...
  1 settings made for z
Setting atom values ...
  1 settings made for y
-1319.66827723446 1000
Setting atom values ...
  1 settings made for z
Setting atom values ...
  1 settings made for y
Setting atom values ...
  1 settings made for z
Setting atom values ...
  1 settings made for y
WARNING: No fixes defined, atoms won't move (../verlet.cpp:55)
PPPM initialization ...
WARNING: Using polynomial approximation for long-range coulomb (../kspace.cpp:316)
  G vector (1/distance) = 0.400041
  grid = 8 15 15
  stencil order = 5
  estimated absolute RMS force accuracy = 0.000671313
  estimated relative force accuracy = 4.66201e-05
  using double precision FFTs
  3d grid and FFT values/proc = 8228 1800
Setting up Verlet run ...
  Unit style    : metal
  Current step  : 0
  Time step     : 0.001
Memory usage per processor = 5.63719 Mbytes
Step Temp E_pair E_mol TotEng Press 
       0            0   -1402.6399            0   -1402.6399    256610.66 
Loop time of 2.14577e-06 on 1 procs for 0 steps with 72 atoms

0.0% CPU use with 1 MPI tasks x 1 OpenMP threads
0.0034387760747384 1000
-1481.42658366852 -1481.42658366852 -1402.63992168056
not skipped
Setting atom values ...
  1 settings made for z
Setting atom values ...
  1 settings made for y
Setting atom values ...
  1 settings made for z
Setting atom values ...
  1 settings made for y
-1402.63992168056 1000
Setting atom values ...
  1 settings made for z
Setting atom values ...
  1 settings made for y
Setting atom values ...
  1 settings made for z
Setting atom values ...
  1 settings made for y
WARNING: No fixes defined, atoms won't move (../verlet.cpp:55)
PPPM initialization ...
WARNING: Using polynomial approximation for long-range coulomb (../kspace.cpp:316)
  G vector (1/distance) = 0.400041
  grid = 8 15 15
  stencil order = 5
  estimated absolute RMS force accuracy = 0.000671313
  estimated relative force accuracy = 4.66201e-05
  using double precision FFTs
  3d grid and FFT values/proc = 8228 1800
Setting up Verlet run ...
  Unit style    : metal
  Current step  : 0
  Time step     : 0.001
Memory usage per processor = 5.63719 Mbytes
Step Temp E_pair E_mol TotEng Press 
       0            0   -1416.3985            0   -1416.3985    217374.82 
Loop time of 1.90735e-06 on 1 procs for 0 steps with 72 atoms

0.0% CPU use with 1 MPI tasks x 1 OpenMP threads
0.00926026142562644 1000
-1481.42658366852 -1481.42658366852 -1416.39848646
not skipped
Setting atom values ...
  1 settings made for z
Setting atom values ...
  1 settings made for y
Setting atom values ...
  1 settings made for z
Setting atom values ...
  1 settings made for y
-1416.39848646 1000
Setting atom values ...
  1 settings made for z
Setting atom values ...
  1 settings made for y
Setting atom values ...
  1 settings made for z
Setting atom values ...
  1 settings made for y
WARNING: No fixes defined, atoms won't move (../verlet.cpp:55)
PPPM initialization ...
WARNING: Using polynomial approximation for long-range coulomb (../kspace.cpp:316)
  G vector (1/distance) = 0.400041
  grid = 8 15 15
  stencil order = 5
  estimated absolute RMS force accuracy = 0.000671313
  estimated relative force accuracy = 4.66201e-05
  using double precision FFTs
  3d grid and FFT values/proc = 8228 1800
Setting up Verlet run ...
  Unit style    : metal
  Current step  : 0
  Time step     : 0.001
Memory usage per processor = 5.63719 Mbytes
Step Temp E_pair E_mol TotEng Press 
       0            0   -1446.7183            0   -1446.7183    139843.86 
Loop time of 1.90735e-06 on 1 procs for 0 steps with 72 atoms

0.0% CPU use with 1 MPI tasks x 1 OpenMP threads
0.0821672419415643 1000
-1481.42658366852 -1481.42658366852 -1446.71827015637
not skipped
Setting atom values ...
  1 settings made for z
Setting atom values ...
  1 settings made for y
Setting atom values ...
  1 settings made for z
Setting atom values ...
  1 settings made for y
-1446.71827015637 1000
Setting atom values ...
  1 settings made for z
Setting atom values ...
  1 settings made for y
Setting atom values ...
  1 settings made for z
Setting atom values ...
  1 settings made for y
WARNING: No fixes defined, atoms won't move (../verlet.cpp:55)
PPPM initialization ...
WARNING: Using polynomial approximation for long-range coulomb (../kspace.cpp:316)
  G vector (1/distance) = 0.400041
  grid = 8 15 15
  stencil order = 5
  estimated absolute RMS force accuracy = 0.000671313
  estimated relative force accuracy = 4.66201e-05
  using double precision FFTs
  3d grid and FFT values/proc = 8228 1800
Setting up Verlet run ...
  Unit style    : metal
  Current step  : 0
  Time step     : 0.001
Memory usage per processor = 5.63719 Mbytes
Step Temp E_pair E_mol TotEng Press 
       0            0   -1461.6607            0   -1461.6607    88056.451 
Loop time of 1.90735e-06 on 1 procs for 0 steps with 72 atoms

0.0% CPU use with 1 MPI tasks x 1 OpenMP threads
0.240954498918595 1000
-1481.42658366852 -1481.42658366852 -1461.66065082846
not skipped
Setting atom values ...
  1 settings made for z
Setting atom values ...
  1 settings made for y
Setting atom values ...
  1 settings made for z
Setting atom values ...
  1 settings made for y
-1461.66065082846 1000
Setting atom values ...
  1 settings made for z
Setting atom values ...
  1 settings made for y
Setting atom values ...
  1 settings made for z
Setting atom values ...
  1 settings made for y
WARNING: No fixes defined, atoms won't move (../verlet.cpp:55)
PPPM initialization ...
WARNING: Using polynomial approximation for long-range coulomb (../kspace.cpp:316)
  G vector (1/distance) = 0.400041
  grid = 8 15 15
  stencil order = 5
  estimated absolute RMS force accuracy = 0.000671313
  estimated relative force accuracy = 4.66201e-05
  using double precision FFTs
  3d grid and FFT values/proc = 8228 1800
Setting up Verlet run ...
  Unit style    : metal
  Current step  : 0
  Time step     : 0.001
Memory usage per processor = 5.63719 Mbytes
Step Temp E_pair E_mol TotEng Press 
       0            0   -1319.9546            0   -1319.9546     372054.6 
Loop time of 2.14577e-06 on 1 procs for 0 steps with 72 atoms

0.0% CPU use with 1 MPI tasks x 1 OpenMP threads
8.93101394455254e-06 1000
-1481.42658366852 -1481.42658366852 -1319.95463053104
not skipped
Setting atom values ...
  1 settings made for z
Setting atom values ...
  1 settings made for y
Setting atom values ...
  1 settings made for z
Setting atom values ...
  1 settings made for y
-1319.95463053104 1000
Setting atom values ...
  1 settings made for z
Setting atom values ...
  1 settings made for y
Setting atom values ...
  1 settings made for z
Setting atom values ...
  1 settings made for y
WARNING: No fixes defined, atoms won't move (../verlet.cpp:55)
PPPM initialization ...
WARNING: Using polynomial approximation for long-range coulomb (../kspace.cpp:316)
  G vector (1/distance) = 0.400041
  grid = 8 15 15
  stencil order = 5
  estimated absolute RMS force accuracy = 0.000671313
  estimated relative force accuracy = 4.66201e-05
  using double precision FFTs
  3d grid and FFT values/proc = 8228 1800
Setting up Verlet run ...
  Unit style    : metal
  Current step  : 0
  Time step     : 0.001
Memory usage per processor = 5.63719 Mbytes
Step Temp E_pair E_mol TotEng Press 
       0            0   -1453.0577            0   -1453.0577    116919.51 
Loop time of 2.14577e-06 on 1 procs for 0 steps with 72 atoms

0.0% CPU use with 1 MPI tasks x 1 OpenMP threads
0.129696770417103 1000
-1481.42658366852 -1481.42658366852 -1453.05774910772
not skipped
Setting atom values ...
  1 settings made for z
Setting atom values ...
  1 settings made for y
Setting atom values ...
  1 settings made for z
Setting atom values ...
  1 settings made for y
-1453.05774910772 1000
Setting atom values ...
  1 settings made for z
Setting atom values ...
  1 settings made for y
Setting atom values ...
  1 settings made for z
Setting atom values ...
  1 settings made for y
WARNING: No fixes defined, atoms won't move (../verlet.cpp:55)
PPPM initialization ...
WARNING: Using polynomial approximation for long-range coulomb (../kspace.cpp:316)
  G vector (1/distance) = 0.400041
  grid = 8 15 15
  stencil order = 5
  estimated absolute RMS force accuracy = 0.000671313
  estimated relative force accuracy = 4.66201e-05
  using double precision FFTs
  3d grid and FFT values/proc = 8228 1800
Setting up Verlet run ...
  Unit style    : metal
  Current step  : 0
  Time step     : 0.001
Memory usage per processor = 5.63719 Mbytes
Step Temp E_pair E_mol TotEng Press 
       0            0    -1318.823            0    -1318.823    392464.73 
Loop time of 2.14577e-06 on 1 procs for 0 steps with 72 atoms

0.0% CPU use with 1 MPI tasks x 1 OpenMP threads
8.23217806800883e-06 1000
-1481.42658366852 -1481.42658366852 -1318.82297355088
not skipped
Setting atom values ...
  1 settings made for z
Setting atom values ...
  1 settings made for y
Setting atom values ...
  1 settings made for z
Setting atom values ...
  1 settings made for y
-1318.82297355088 1000
Setting atom values ...
  1 settings made for z
Setting atom values ...
  1 settings made for y
Setting atom values ...
  1 settings made for z
Setting atom values ...
  1 settings made for y
WARNING: No fixes defined, atoms won't move (../verlet.cpp:55)
PPPM initialization ...
WARNING: Using polynomial approximation for long-range coulomb (../kspace.cpp:316)
  G vector (1/distance) = 0.400041
  grid = 8 15 15
  stencil order = 5
  estimated absolute RMS force accuracy = 0.000671313
  estimated relative force accuracy = 4.66201e-05
  using double precision FFTs
  3d grid and FFT values/proc = 8228 1800
Setting up Verlet run ...
  Unit style    : metal
  Current step  : 0
  Time step     : 0.001
Memory usage per processor = 5.63719 Mbytes
Step Temp E_pair E_mol TotEng Press 
       0            0   -1326.7797            0   -1326.7797    347866.09 
Loop time of 1.90735e-06 on 1 procs for 0 steps with 72 atoms

0.0% CPU use with 1 MPI tasks x 1 OpenMP threads
1.45987640741822e-05 1000
-1481.42658366852 -1481.42658366852 -1326.77972692843
not skipped
Setting atom values ...
  1 settings made for z
Setting atom values ...
  1 settings made for y
Setting atom values ...
  1 settings made for z
Setting atom values ...
  1 settings made for y
-1326.77972692843 1000
Setting atom values ...
  1 settings made for z
Setting atom values ...
  1 settings made for y
Setting atom values ...
  1 settings made for z
Setting atom values ...
  1 settings made for y
WARNING: No fixes defined, atoms won't move (../verlet.cpp:55)
PPPM initialization ...
WARNING: Using polynomial approximation for long-range coulomb (../kspace.cpp:316)
  G vector (1/distance) = 0.400041
  grid = 8 15 15
  stencil order = 5
  estimated absolute RMS force accuracy = 0.000671313
  estimated relative force accuracy = 4.66201e-05
  using double precision FFTs
  3d grid and FFT values/proc = 8228 1800
Setting up Verlet run ...
  Unit style    : metal
  Current step  : 0
  Time step     : 0.001
Memory usage per processor = 5.63719 Mbytes
Step Temp E_pair E_mol TotEng Press 
       0            0   -1466.0647            0   -1466.0647    74980.362 
Loop time of 1.90735e-06 on 1 procs for 0 steps with 72 atoms

0.0% CPU use with 1 MPI tasks x 1 OpenMP threads
0.330862523444724 1000
-1481.42658366852 -1481.42658366852 -1466.06474579482
not skipped
Setting atom values ...
  1 settings made for z
Setting atom values ...
  1 settings made for y
Setting atom values ...
  1 settings made for z
Setting atom values ...
  1 settings made for y
-1466.06474579482 1000
Setting atom values ...
  1 settings made for z
Setting atom values ...
  1 settings made for y
Setting atom values ...
  1 settings made for z
Setting atom values ...
  1 settings made for y
WARNING: No fixes defined, atoms won't move (../verlet.cpp:55)
PPPM initialization ...
WARNING: Using polynomial approximation for long-range coulomb (../kspace.cpp:316)
  G vector (1/distance) = 0.400041
  grid = 8 15 15
  stencil order = 5
  estimated absolute RMS force accuracy = 0.000671313
  estimated relative force accuracy = 4.66201e-05
  using double precision FFTs
  3d grid and FFT values/proc = 8228 1800
Setting up Verlet run ...
  Unit style    : metal
  Current step  : 0
  Time step     : 0.001
Memory usage per processor = 5.63719 Mbytes
Step Temp E_pair E_mol TotEng Press 
       0            0    -1355.809            0    -1355.809    328343.71 
Loop time of 2.86102e-06 on 1 procs for 0 steps with 72 atoms

0.0% CPU use with 1 MPI tasks x 1 OpenMP threads
0.000118042222695678 1000
-1481.42658366852 -1481.42658366852 -1355.80897008455
not skipped
Setting atom values ...
  1 settings made for z
Setting atom values ...
  1 settings made for y
Setting atom values ...
  1 settings made for z
Setting atom values ...
  1 settings made for y
-1355.80897008455 1000
Setting atom values ...
  1 settings made for z
Setting atom values ...
  1 settings made for y
Setting atom values ...
  1 settings made for z
Setting atom values ...
  1 settings made for y
WARNING: No fixes defined, atoms won't move (../verlet.cpp:55)
PPPM initialization ...
WARNING: Using polynomial approximation for long-range coulomb (../kspace.cpp:316)
  G vector (1/distance) = 0.400041
  grid = 8 15 15
  stencil order = 5
  estimated absolute RMS force accuracy = 0.000671313
  estimated relative force accuracy = 4.66201e-05
  using double precision FFTs
  3d grid and FFT values/proc = 8228 1800
Setting up Verlet run ...
  Unit style    : metal
  Current step  : 0
  Time step     : 0.001
Memory usage per processor = 5.63719 Mbytes
Step Temp E_pair E_mol TotEng Press 
       0            0   -1346.3277            0   -1346.3277    368406.86 
Loop time of 2.14577e-06 on 1 procs for 0 steps with 72 atoms

0.0% CPU use with 1 MPI tasks x 1 OpenMP threads
5.96438493462614e-05 1000
-1481.42658366852 -1481.42658366852 -1346.32770134739
not skipped
Setting atom values ...
  1 settings made for z
Setting atom values ...
  1 settings made for y
Setting atom values ...
  1 settings made for z
Setting atom values ...
  1 settings made for y
-1346.32770134739 1000
Setting atom values ...
  1 settings made for z
Setting atom values ...
  1 settings made for y
Setting atom values ...
  1 settings made for z
Setting atom values ...
  1 settings made for y
WARNING: No fixes defined, atoms won't move (../verlet.cpp:55)
PPPM initialization ...
WARNING: Using polynomial approximation for long-range coulomb (../kspace.cpp:316)
  G vector (1/distance) = 0.400041
  grid = 8 15 15
  stencil order = 5
  estimated absolute RMS force accuracy = 0.000671313
  estimated relative force accuracy = 4.66201e-05
  using double precision FFTs
  3d grid and FFT values/proc = 8228 1800
Setting up Verlet run ...
  Unit style    : metal
  Current step  : 0
  Time step     : 0.001
Memory usage per processor = 5.63719 Mbytes
Step Temp E_pair E_mol TotEng Press 
       0            0    -1300.742            0    -1300.742    427025.13 
Loop time of 1.90735e-06 on 1 procs for 0 steps with 72 atoms

0.0% CPU use with 1 MPI tasks x 1 OpenMP threads
2.23942033058246e-06 1000
-1481.42658366852 -1481.42658366852 -1300.74195163273
not skipped
Setting atom values ...
  1 settings made for z
Setting atom values ...
  1 settings made for y
Setting atom values ...
  1 settings made for z
Setting atom values ...
  1 settings made for y
-1300.74195163273 1000
Setting atom values ...
  1 settings made for z
Setting atom values ...
  1 settings made for y
Setting atom values ...
  1 settings made for z
Setting atom values ...
  1 settings made for y
WARNING: No fixes defined, atoms won't move (../verlet.cpp:55)
PPPM initialization ...
WARNING: Using polynomial approximation for long-range coulomb (../kspace.cpp:316)
  G vector (1/distance) = 0.400041
  grid = 8 15 15
  stencil order = 5
  estimated absolute RMS force accuracy = 0.000671313
  estimated relative force accuracy = 4.66201e-05
  using double precision FFTs
  3d grid and FFT values/proc = 8228 1800
Setting up Verlet run ...
  Unit style    : metal
  Current step  : 0
  Time step     : 0.001
Memory usage per processor = 5.63719 Mbytes
Step Temp E_pair E_mol TotEng Press 
       0            0   -1439.9147            0   -1439.9147    152052.27 
Loop time of 2.14577e-06 on 1 procs for 0 steps with 72 atoms

0.0% CPU use with 1 MPI tasks x 1 OpenMP threads
0.0503448914776233 1000
-1481.42658366852 -1481.42658366852 -1439.91466526309
not skipped
Setting atom values ...
  1 settings made for z
Setting atom values ...
  1 settings made for y
Setting atom values ...
  1 settings made for z
Setting atom values ...
  1 settings made for y
-1439.91466526309 1000
Setting atom values ...
  1 settings made for z
Setting atom values ...
  1 settings made for y
Setting atom values ...
  1 settings made for z
Setting atom values ...
  1 settings made for y
WARNING: No fixes defined, atoms won't move (../verlet.cpp:55)
PPPM initialization ...
WARNING: Using polynomial approximation for long-range coulomb (../kspace.cpp:316)
  G vector (1/distance) = 0.400041
  grid = 8 15 15
  stencil order = 5
  estimated absolute RMS force accuracy = 0.000671313
  estimated relative force accuracy = 4.66201e-05
  using double precision FFTs
  3d grid and FFT values/proc = 8228 1800
Setting up Verlet run ...
  Unit style    : metal
  Current step  : 0
  Time step     : 0.001
Memory usage per processor = 5.63719 Mbytes
Step Temp E_pair E_mol TotEng Press 
       0            0   -1386.3072            0   -1386.3072    281341.78 
Loop time of 1.90735e-06 on 1 procs for 0 steps with 72 atoms

0.0% CPU use with 1 MPI tasks x 1 OpenMP threads
0.00106094639561932 1000
-1481.42658366852 -1481.42658366852 -1386.30722334721
not skipped
Setting atom values ...
  1 settings made for z
Setting atom values ...
  1 settings made for y
Setting atom values ...
  1 settings made for z
Setting atom values ...
  1 settings made for y
-1386.30722334721 1000
Setting atom values ...
  1 settings made for z
Setting atom values ...
  1 settings made for y
Setting atom values ...
  1 settings made for z
Setting atom values ...
  1 settings made for y
WARNING: No fixes defined, atoms won't move (../verlet.cpp:55)
PPPM initialization ...
WARNING: Using polynomial approximation for long-range coulomb (../kspace.cpp:316)
  G vector (1/distance) = 0.400041
  grid = 8 15 15
  stencil order = 5
  estimated absolute RMS force accuracy = 0.000671313
  estimated relative force accuracy = 4.66201e-05
  using double precision FFTs
  3d grid and FFT values/proc = 8228 1800
Setting up Verlet run ...
  Unit style    : metal
  Current step  : 0
  Time step     : 0.001
Memory usage per processor = 5.63719 Mbytes
Step Temp E_pair E_mol TotEng Press 
       0            0   -1473.4553            0   -1473.4553    45227.224 
Loop time of 1.90735e-06 on 1 procs for 0 steps with 72 atoms

0.0% CPU use with 1 MPI tasks x 1 OpenMP threads
0.563304804798716 1000
-1481.42658366852 -1481.42658366852 -1473.4552725104
not skipped
WARNING: No fixes defined, atoms won't move (../verlet.cpp:55)
PPPM initialization ...
WARNING: Using polynomial approximation for long-range coulomb (../kspace.cpp:316)
  G vector (1/distance) = 0.400041
  grid = 8 15 15
  stencil order = 5
  estimated absolute RMS force accuracy = 0.000671313
  estimated relative force accuracy = 4.66201e-05
  using double precision FFTs
  3d grid and FFT values/proc = 8228 1800
Setting up Verlet run ...
  Unit style    : metal
  Current step  : 0
  Time step     : 0.001
Memory usage per processor = 5.63719 Mbytes
Step Temp E_pair E_mol TotEng Press 
       0            0   -1473.4553            0   -1473.4553    45227.224 
       1            0   -1473.4553            0   -1473.4553    45227.224 
Loop time of 0.00385499 on 1 procs for 1 steps with 72 atoms

99.9% CPU use with 1 MPI tasks x 1 OpenMP threads
-1473.4552725104 1000
Setting atom values ...
  1 settings made for z
Setting atom values ...
  1 settings made for y
Setting atom values ...
  1 settings made for z
Setting atom values ...
  1 settings made for y
WARNING: No fixes defined, atoms won't move (../verlet.cpp:55)
PPPM initialization ...
WARNING: Using polynomial approximation for long-range coulomb (../kspace.cpp:316)
  G vector (1/distance) = 0.400041
  grid = 8 15 15
  stencil order = 5
  estimated absolute RMS force accuracy = 0.000671313
  estimated relative force accuracy = 4.66201e-05
  using double precision FFTs
  3d grid and FFT values/proc = 8228 1800
Setting up Verlet run ...
  Unit style    : metal
  Current step  : 1
  Time step     : 0.001
Memory usage per processor = 5.63719 Mbytes
Step Temp E_pair E_mol TotEng Press 
       1            0   -1441.9633            0   -1441.9633    174622.52 
Loop time of 1.90735e-06 on 1 procs for 0 steps with 72 atoms

0.0% CPU use with 1 MPI tasks x 1 OpenMP threads
0.103578857859716 1000
-1481.42658366852 -1473.4552725104 -1441.9632996674
not skipped
Setting atom values ...
  1 settings made for z
Setting atom values ...
  1 settings made for y
Setting atom values ...
  1 settings made for z
Setting atom values ...
  1 settings made for y
-1441.9632996674 1000
Setting atom values ...
  1 settings made for z
Setting atom values ...
  1 settings made for y
Setting atom values ...
  1 settings made for z
Setting atom values ...
  1 settings made for y
WARNING: No fixes defined, atoms won't move (../verlet.cpp:55)
PPPM initialization ...
WARNING: Using polynomial approximation for long-range coulomb (../kspace.cpp:316)
  G vector (1/distance) = 0.400041
  grid = 8 15 15
  stencil order = 5
  estimated absolute RMS force accuracy = 0.000671313
  estimated relative force accuracy = 4.66201e-05
  using double precision FFTs
  3d grid and FFT values/proc = 8228 1800
Setting up Verlet run ...
  Unit style    : metal
  Current step  : 1
  Time step     : 0.001
Memory usage per processor = 5.63719 Mbytes
Step Temp E_pair E_mol TotEng Press 
       1            0    -1458.178            0    -1458.178    121484.99 
Loop time of 1.90735e-06 on 1 procs for 0 steps with 72 atoms

0.0% CPU use with 1 MPI tasks x 1 OpenMP threads
0.332883999760108 1000
-1481.42658366852 -1473.4552725104 -1458.17803363876
not skipped
WARNING: No fixes defined, atoms won't move (../verlet.cpp:55)
PPPM initialization ...
WARNING: Using polynomial approximation for long-range coulomb (../kspace.cpp:316)
  G vector (1/distance) = 0.400041
  grid = 8 15 15
  stencil order = 5
  estimated absolute RMS force accuracy = 0.000671313
  estimated relative force accuracy = 4.66201e-05
  using double precision FFTs
  3d grid and FFT values/proc = 8228 1800
Setting up Verlet run ...
  Unit style    : metal
  Current step  : 1
  Time step     : 0.001
Memory usage per processor = 5.63719 Mbytes
Step Temp E_pair E_mol TotEng Press 
       1            0    -1458.178            0    -1458.178    121484.99 
       2            0    -1458.178            0    -1458.178    121484.99 
Loop time of 0.00383902 on 1 procs for 1 steps with 72 atoms

100.4% CPU use with 1 MPI tasks x 1 OpenMP threads
-1458.17803363876 1000
Setting atom values ...
  1 settings made for z
Setting atom values ...
  1 settings made for y
Setting atom values ...
  1 settings made for z
Setting atom values ...
  1 settings made for y
WARNING: No fixes defined, atoms won't move (../verlet.cpp:55)
PPPM initialization ...
WARNING: Using polynomial approximation for long-range coulomb (../kspace.cpp:316)
  G vector (1/distance) = 0.400041
  grid = 8 15 15
  stencil order = 5
  estimated absolute RMS force accuracy = 0.000671313
  estimated relative force accuracy = 4.66201e-05
  using double precision FFTs
  3d grid and FFT values/proc = 8228 1800
Setting up Verlet run ...
  Unit style    : metal
  Current step  : 2
  Time step     : 0.001
Memory usage per processor = 5.63719 Mbytes
Step Temp E_pair E_mol TotEng Press 
       2            0   -1393.6973            0   -1393.6973     -1618908 
Loop time of 9.53674e-07 on 1 procs for 0 steps with 72 atoms

0.0% CPU use with 1 MPI tasks x 1 OpenMP threads
0.00963247425487363 1000
-1481.42658366852 -1458.17803363876 -1393.69726760816
not skipped
Setting atom values ...
  1 settings made for z
Setting atom values ...
  1 settings made for y
Setting atom values ...
  1 settings made for z
Setting atom values ...
  1 settings made for y
-1393.69726760816 1000
Setting atom values ...
  1 settings made for z
Setting atom values ...
  1 settings made for y
Setting atom values ...
  1 settings made for z
Setting atom values ...
  1 settings made for y
WARNING: No fixes defined, atoms won't move (../verlet.cpp:55)
PPPM initialization ...
WARNING: Using polynomial approximation for long-range coulomb (../kspace.cpp:316)
  G vector (1/distance) = 0.400041
  grid = 8 15 15
  stencil order = 5
  estimated absolute RMS force accuracy = 0.000671313
  estimated relative force accuracy = 4.66201e-05
  using double precision FFTs
  3d grid and FFT values/proc = 8228 1800
Setting up Verlet run ...
  Unit style    : metal
  Current step  : 2
  Time step     : 0.001
Memory usage per processor = 5.63719 Mbytes
Step Temp E_pair E_mol TotEng Press 
       2            0   -1320.7608            0   -1320.7608    479006.45 
Loop time of 1.90735e-06 on 1 procs for 0 steps with 72 atoms

0.0% CPU use with 1 MPI tasks x 1 OpenMP threads
5.0474706513453e-05 1000
-1481.42658366852 -1458.17803363876 -1320.7608363016
not skipped
Setting atom values ...
  1 settings made for z
Setting atom values ...
  1 settings made for y
Setting atom values ...
  1 settings made for z
Setting atom values ...
  1 settings made for y
-1320.7608363016 1000
Setting atom values ...
  1 settings made for z
Setting atom values ...
  1 settings made for y
Setting atom values ...
  1 settings made for z
Setting atom values ...
  1 settings made for y
WARNING: No fixes defined, atoms won't move (../verlet.cpp:55)
PPPM initialization ...
WARNING: Using polynomial approximation for long-range coulomb (../kspace.cpp:316)
  G vector (1/distance) = 0.400041
  grid = 8 15 15
  stencil order = 5
  estimated absolute RMS force accuracy = 0.000671313
  estimated relative force accuracy = 4.66201e-05
  using double precision FFTs
  3d grid and FFT values/proc = 8228 1800
Setting up Verlet run ...
  Unit style    : metal
  Current step  : 2
  Time step     : 0.001
Memory usage per processor = 5.63719 Mbytes
Step Temp E_pair E_mol TotEng Press 
       2            0   -1446.6202            0   -1446.6202    179771.27 
Loop time of 1.90735e-06 on 1 procs for 0 steps with 72 atoms

0.0% CPU use with 1 MPI tasks x 1 OpenMP threads
0.435107108788486 1000
-1481.42658366852 -1458.17803363876 -1446.62021348456
not skipped
Setting atom values ...
  1 settings made for z
Setting atom values ...
  1 settings made for y
Setting atom values ...
  1 settings made for z
Setting atom values ...
  1 settings made for y
-1446.62021348456 1000
Setting atom values ...
  1 settings made for z
Setting atom values ...
  1 settings made for y
Setting atom values ...
  1 settings made for z
Setting atom values ...
  1 settings made for y
WARNING: No fixes defined, atoms won't move (../verlet.cpp:55)
PPPM initialization ...
WARNING: Using polynomial approximation for long-range coulomb (../kspace.cpp:316)
  G vector (1/distance) = 0.400041
  grid = 8 15 15
  stencil order = 5
  estimated absolute RMS force accuracy = 0.000671313
  estimated relative force accuracy = 4.66201e-05
  using double precision FFTs
  3d grid and FFT values/proc = 8228 1800
Setting up Verlet run ...
  Unit style    : metal
  Current step  : 2
  Time step     : 0.001
Memory usage per processor = 5.63719 Mbytes
Step Temp E_pair E_mol TotEng Press 
       2            0   -1364.2544            0   -1364.2544    385221.21 
Loop time of 1.90735e-06 on 1 procs for 0 steps with 72 atoms

209.7% CPU use with 1 MPI tasks x 1 OpenMP threads
0.00115633404955095 1000
-1481.42658366852 -1458.17803363876 -1364.25441446826
not skipped
Setting atom values ...
  1 settings made for z
Setting atom values ...
  1 settings made for y
Setting atom values ...
  1 settings made for z
Setting atom values ...
  1 settings made for y
-1364.25441446826 1000
Setting atom values ...
  1 settings made for z
Setting atom values ...
  1 settings made for y
Setting atom values ...
  1 settings made for z
Setting atom values ...
  1 settings made for y
WARNING: No fixes defined, atoms won't move (../verlet.cpp:55)
PPPM initialization ...
WARNING: Using polynomial approximation for long-range coulomb (../kspace.cpp:316)
  G vector (1/distance) = 0.400041
  grid = 8 15 15
  stencil order = 5
  estimated absolute RMS force accuracy = 0.000671313
  estimated relative force accuracy = 4.66201e-05
  using double precision FFTs
  3d grid and FFT values/proc = 8228 1800
Setting up Verlet run ...
  Unit style    : metal
  Current step  : 2
  Time step     : 0.001
Memory usage per processor = 5.63719 Mbytes
Step Temp E_pair E_mol TotEng Press 
       2            0   -1431.0718            0   -1431.0718    238869.93 
Loop time of 1.90735e-06 on 1 procs for 0 steps with 72 atoms

209.7% CPU use with 1 MPI tasks x 1 OpenMP threads
0.142039682552188 1000
-1481.42658366852 -1458.17803363876 -1431.07180022448
not skipped
Setting atom values ...
  1 settings made for z
Setting atom values ...
  1 settings made for y
Setting atom values ...
  1 settings made for z
Setting atom values ...
  1 settings made for y
-1431.07180022448 1000
Setting atom values ...
  1 settings made for z
Setting atom values ...
  1 settings made for y
Setting atom values ...
  1 settings made for z
Setting atom values ...
  1 settings made for y
WARNING: No fixes defined, atoms won't move (../verlet.cpp:55)
PPPM initialization ...
WARNING: Using polynomial approximation for long-range coulomb (../kspace.cpp:316)
  G vector (1/distance) = 0.400041
  grid = 8 15 15
  stencil order = 5
  estimated absolute RMS force accuracy = 0.000671313
  estimated relative force accuracy = 4.66201e-05
  using double precision FFTs
  3d grid and FFT values/proc = 8228 1800
Setting up Verlet run ...
  Unit style    : metal
  Current step  : 2
  Time step     : 0.001
Memory usage per processor = 5.63719 Mbytes
Step Temp E_pair E_mol TotEng Press 
       2            0   -1405.0273            0   -1405.0273    306165.35 
Loop time of 1.90735e-06 on 1 procs for 0 steps with 72 atoms

0.0% CPU use with 1 MPI tasks x 1 OpenMP threads
0.0217781202770783 1000
-1481.42658366852 -1458.17803363876 -1405.02734655261
not skipped
Setting atom values ...
  1 settings made for z
Setting atom values ...
  1 settings made for y
Setting atom values ...
  1 settings made for z
Setting atom values ...
  1 settings made for y
-1405.02734655261 1000
Setting atom values ...
  1 settings made for z
Setting atom values ...
  1 settings made for y
Setting atom values ...
  1 settings made for z
Setting atom values ...
  1 settings made for y
WARNING: No fixes defined, atoms won't move (../verlet.cpp:55)
PPPM initialization ...
WARNING: Using polynomial approximation for long-range coulomb (../kspace.cpp:316)
  G vector (1/distance) = 0.400041
  grid = 8 15 15
  stencil order = 5
  estimated absolute RMS force accuracy = 0.000671313
  estimated relative force accuracy = 4.66201e-05
  using double precision FFTs
  3d grid and FFT values/proc = 8228 1800
Setting up Verlet run ...
  Unit style    : metal
  Current step  : 2
  Time step     : 0.001
Memory usage per processor = 5.63719 Mbytes
Step Temp E_pair E_mol TotEng Press 
       2            0   -1095.3615            0   -1095.3615    610162.85 
Loop time of 1.90735e-06 on 1 procs for 0 steps with 72 atoms

0.0% CPU use with 1 MPI tasks x 1 OpenMP threads
4.51872763856947e-12 1000
-1481.42658366852 -1458.17803363876 -1095.3614967276
not skipped
Setting atom values ...
  1 settings made for z
Setting atom values ...
  1 settings made for y
Setting atom values ...
  1 settings made for z
Setting atom values ...
  1 settings made for y
-1095.3614967276 1000
Setting atom values ...
  1 settings made for z
Setting atom values ...
  1 settings made for y
Setting atom values ...
  1 settings made for z
Setting atom values ...
  1 settings made for y
WARNING: No fixes defined, atoms won't move (../verlet.cpp:55)
PPPM initialization ...
WARNING: Using polynomial approximation for long-range coulomb (../kspace.cpp:316)
  G vector (1/distance) = 0.400041
  grid = 8 15 15
  stencil order = 5
  estimated absolute RMS force accuracy = 0.000671313
  estimated relative force accuracy = 4.66201e-05
  using double precision FFTs
  3d grid and FFT values/proc = 8228 1800
Setting up Verlet run ...
  Unit style    : metal
  Current step  : 2
  Time step     : 0.001
Memory usage per processor = 5.63719 Mbytes
Step Temp E_pair E_mol TotEng Press 
       2            0   -1447.0581            0   -1447.0581    175285.26 
Loop time of 9.53674e-07 on 1 procs for 0 steps with 72 atoms

0.0% CPU use with 1 MPI tasks x 1 OpenMP threads
0.449042097192382 1000
-1481.42658366852 -1458.17803363876 -1447.05805255587
not skipped
WARNING: No fixes defined, atoms won't move (../verlet.cpp:55)
PPPM initialization ...
WARNING: Using polynomial approximation for long-range coulomb (../kspace.cpp:316)
  G vector (1/distance) = 0.400041
  grid = 8 15 15
  stencil order = 5
  estimated absolute RMS force accuracy = 0.000671313
  estimated relative force accuracy = 4.66201e-05
  using double precision FFTs
  3d grid and FFT values/proc = 8228 1800
Setting up Verlet run ...
  Unit style    : metal
  Current step  : 2
  Time step     : 0.001
Memory usage per processor = 5.63719 Mbytes
Step Temp E_pair E_mol TotEng Press 
       2            0   -1447.0581            0   -1447.0581    175285.26 
       3            0   -1447.0581            0   -1447.0581    175285.26 
Loop time of 0.00383186 on 1 procs for 1 steps with 72 atoms

99.9% CPU use with 1 MPI tasks x 1 OpenMP threads
-1447.05805255587 1000
Setting atom values ...
  1 settings made for z
Setting atom values ...
  1 settings made for y
Setting atom values ...
  1 settings made for z
Setting atom values ...
  1 settings made for y
WARNING: No fixes defined, atoms won't move (../verlet.cpp:55)
PPPM initialization ...
WARNING: Using polynomial approximation for long-range coulomb (../kspace.cpp:316)
  G vector (1/distance) = 0.400041
  grid = 8 15 15
  stencil order = 5
  estimated absolute RMS force accuracy = 0.000671313
  estimated relative force accuracy = 4.66201e-05
  using double precision FFTs
  3d grid and FFT values/proc = 8228 1800
Setting up Verlet run ...
  Unit style    : metal
  Current step  : 3
  Time step     : 0.001
Memory usage per processor = 5.63719 Mbytes
Step Temp E_pair E_mol TotEng Press 
       3            0   -1185.0658            0   -1185.0658    632761.87 
Loop time of 1.90735e-06 on 1 procs for 0 steps with 72 atoms

0.0% CPU use with 1 MPI tasks x 1 OpenMP threads
6.42260668902809e-09 1000
-1481.42658366852 -1447.05805255587 -1185.06580567639
not skipped
Setting atom values ...
  1 settings made for z
Setting atom values ...
  1 settings made for y
Setting atom values ...
  1 settings made for z
Setting atom values ...
  1 settings made for y
-1185.06580567639 1000
Setting atom values ...
  1 settings made for z
Setting atom values ...
  1 settings made for y
Setting atom values ...
  1 settings made for z
Setting atom values ...
  1 settings made for y
WARNING: No fixes defined, atoms won't move (../verlet.cpp:55)
PPPM initialization ...
WARNING: Using polynomial approximation for long-range coulomb (../kspace.cpp:316)
  G vector (1/distance) = 0.400041
  grid = 8 15 15
  stencil order = 5
  estimated absolute RMS force accuracy = 0.000671313
  estimated relative force accuracy = 4.66201e-05
  using double precision FFTs
  3d grid and FFT values/proc = 8228 1800
Setting up Verlet run ...
  Unit style    : metal
  Current step  : 3
  Time step     : 0.001
Memory usage per processor = 5.63719 Mbytes
Step Temp E_pair E_mol TotEng Press 
       3            0    -1210.132            0    -1210.132    613093.86 
Loop time of 2.14577e-06 on 1 procs for 0 steps with 72 atoms

0.0% CPU use with 1 MPI tasks x 1 OpenMP threads
3.90401522081428e-08 1000
-1481.42658366852 -1447.05805255587 -1210.13200843594
not skipped
Setting atom values ...
  1 settings made for z
Setting atom values ...
  1 settings made for y
Setting atom values ...
  1 settings made for z
Setting atom values ...
  1 settings made for y
-1210.13200843594 1000
Setting atom values ...
  1 settings made for z
Setting atom values ...
  1 settings made for y
Setting atom values ...
  1 settings made for z
Setting atom values ...
  1 settings made for y
WARNING: No fixes defined, atoms won't move (../verlet.cpp:55)
PPPM initialization ...
WARNING: Using polynomial approximation for long-range coulomb (../kspace.cpp:316)
  G vector (1/distance) = 0.400041
  grid = 8 15 15
  stencil order = 5
  estimated absolute RMS force accuracy = 0.000671313
  estimated relative force accuracy = 4.66201e-05
  using double precision FFTs
  3d grid and FFT values/proc = 8228 1800
Setting up Verlet run ...
  Unit style    : metal
  Current step  : 3
  Time step     : 0.001
Memory usage per processor = 5.63719 Mbytes
Step Temp E_pair E_mol TotEng Press 
       3            0   -1403.8404            0   -1403.8404    338305.92 
Loop time of 1.90735e-06 on 1 procs for 0 steps with 72 atoms

0.0% CPU use with 1 MPI tasks x 1 OpenMP threads
0.0445263554647769 1000
-1481.42658366852 -1447.05805255587 -1403.8403580074
not skipped
Setting atom values ...
  1 settings made for z
Setting atom values ...
  1 settings made for y
Setting atom values ...
  1 settings made for z
Setting atom values ...
  1 settings made for y
-1403.8403580074 1000
Setting atom values ...
  1 settings made for z
Setting atom values ...
  1 settings made for y
Setting atom values ...
  1 settings made for z
Setting atom values ...
  1 settings made for y
WARNING: No fixes defined, atoms won't move (../verlet.cpp:55)
PPPM initialization ...
WARNING: Using polynomial approximation for long-range coulomb (../kspace.cpp:316)
  G vector (1/distance) = 0.400041
  grid = 8 15 15
  stencil order = 5
  estimated absolute RMS force accuracy = 0.000671313
  estimated relative force accuracy = 4.66201e-05
  using double precision FFTs
  3d grid and FFT values/proc = 8228 1800
Setting up Verlet run ...
  Unit style    : metal
  Current step  : 3
  Time step     : 0.001
Memory usage per processor = 5.63719 Mbytes
Step Temp E_pair E_mol TotEng Press 
       3            0   -3449.6129            0   -3449.6129    -13675368 
Loop time of 1.90735e-06 on 1 procs for 0 steps with 72 atoms

0.0% CPU use with 1 MPI tasks x 1 OpenMP threads
4.15235746636896e+62 1000
-1481.42658366852 -1447.05805255587 -3449.61294148325
Setting atom values ...
  1 settings made for z
Setting atom values ...
  1 settings made for y
Setting atom values ...
  1 settings made for z
Setting atom values ...
  1 settings made for y
Rejected
-3449.61294148325 1000
Setting atom values ...
  1 settings made for z
Setting atom values ...
  1 settings made for y
Setting atom values ...
  1 settings made for z
Setting atom values ...
  1 settings made for y
WARNING: No fixes defined, atoms won't move (../verlet.cpp:55)
PPPM initialization ...
WARNING: Using polynomial approximation for long-range coulomb (../kspace.cpp:316)
  G vector (1/distance) = 0.400041
  grid = 8 15 15
  stencil order = 5
  estimated absolute RMS force accuracy = 0.000671313
  estimated relative force accuracy = 4.66201e-05
  using double precision FFTs
  3d grid and FFT values/proc = 8228 1800
Setting up Verlet run ...
  Unit style    : metal
  Current step  : 3
  Time step     : 0.001
Memory usage per processor = 5.63719 Mbytes
Step Temp E_pair E_mol TotEng Press 
       3            0   -1299.0312            0   -1299.0312     523337.5 
Loop time of 1.90735e-06 on 1 procs for 0 steps with 72 atoms

0.0% CPU use with 1 MPI tasks x 1 OpenMP threads
2.35136303592682e-05 1000
-1481.42658366852 -1447.05805255587 -1299.03124297712
not skipped
Setting atom values ...
  1 settings made for z
Setting atom values ...
  1 settings made for y
Setting atom values ...
  1 settings made for z
Setting atom values ...
  1 settings made for y
-1299.03124297712 1000
Setting atom values ...
  1 settings made for z
Setting atom values ...
  1 settings made for y
Setting atom values ...
  1 settings made for z
Setting atom values ...
  1 settings made for y
WARNING: No fixes defined, atoms won't move (../verlet.cpp:55)
PPPM initialization ...
WARNING: Using polynomial approximation for long-range coulomb (../kspace.cpp:316)
  G vector (1/distance) = 0.400041
  grid = 8 15 15
  stencil order = 5
  estimated absolute RMS force accuracy = 0.000671313
  estimated relative force accuracy = 4.66201e-05
  using double precision FFTs
  3d grid and FFT values/proc = 8228 1800
Setting up Verlet run ...
  Unit style    : metal
  Current step  : 3
  Time step     : 0.001
Memory usage per processor = 5.63719 Mbytes
Step Temp E_pair E_mol TotEng Press 
       3            0   -1438.4408            0   -1438.4408    220381.85 
Loop time of 1.90735e-06 on 1 procs for 0 steps with 72 atoms

262.1% CPU use with 1 MPI tasks x 1 OpenMP threads
0.537705747455141 1000
-1481.42658366852 -1447.05805255587 -1438.44077746891
not skipped
Setting atom values ...
  1 settings made for z
Setting atom values ...
  1 settings made for y
Setting atom values ...
  1 settings made for z
Setting atom values ...
  1 settings made for y
-1438.44077746891 1000
Setting atom values ...
  1 settings made for z
Setting atom values ...
  1 settings made for y
Setting atom values ...
  1 settings made for z
Setting atom values ...
  1 settings made for y
WARNING: No fixes defined, atoms won't move (../verlet.cpp:55)
PPPM initialization ...
WARNING: Using polynomial approximation for long-range coulomb (../kspace.cpp:316)
  G vector (1/distance) = 0.400041
  grid = 8 15 15
  stencil order = 5
  estimated absolute RMS force accuracy = 0.000671313
  estimated relative force accuracy = 4.66201e-05
  using double precision FFTs
  3d grid and FFT values/proc = 8228 1800
Setting up Verlet run ...
  Unit style    : metal
  Current step  : 3
  Time step     : 0.001
Memory usage per processor = 5.63719 Mbytes
Step Temp E_pair E_mol TotEng Press 
       3            0   -1446.4552            0   -1446.4552    186019.06 
Loop time of 1.90735e-06 on 1 procs for 0 steps with 72 atoms

262.1% CPU use with 1 MPI tasks x 1 OpenMP threads
0.957525510941313 1000
-1481.42658366852 -1447.05805255587 -1446.45523429196
not skipped
WARNING: No fixes defined, atoms won't move (../verlet.cpp:55)
PPPM initialization ...
WARNING: Using polynomial approximation for long-range coulomb (../kspace.cpp:316)
  G vector (1/distance) = 0.400041
  grid = 8 15 15
  stencil order = 5
  estimated absolute RMS force accuracy = 0.000671313
  estimated relative force accuracy = 4.66201e-05
  using double precision FFTs
  3d grid and FFT values/proc = 8228 1800
Setting up Verlet run ...
  Unit style    : metal
  Current step  : 3
  Time step     : 0.001
Memory usage per processor = 5.63719 Mbytes
Step Temp E_pair E_mol TotEng Press 
       3            0   -1446.4552            0   -1446.4552    186019.06 
       4            0   -1446.4552            0   -1446.4552    186019.06 
Loop time of 0.00398183 on 1 procs for 1 steps with 72 atoms

99.7% CPU use with 1 MPI tasks x 1 OpenMP threads
-1446.45523429196 1000
Setting atom values ...
  1 settings made for z
Setting atom values ...
  1 settings made for y
Setting atom values ...
  1 settings made for z
Setting atom values ...
  1 settings made for y
WARNING: No fixes defined, atoms won't move (../verlet.cpp:55)
PPPM initialization ...
WARNING: Using polynomial approximation for long-range coulomb (../kspace.cpp:316)
  G vector (1/distance) = 0.400041
  grid = 8 15 15
  stencil order = 5
  estimated absolute RMS force accuracy = 0.000671313
  estimated relative force accuracy = 4.66201e-05
  using double precision FFTs
  3d grid and FFT values/proc = 8228 1800
Setting up Verlet run ...
  Unit style    : metal
  Current step  : 4
  Time step     : 0.001
Memory usage per processor = 5.63719 Mbytes
Step Temp E_pair E_mol TotEng Press 
       4            0    -1414.924            0    -1414.924    313819.36 
Loop time of 1.90735e-06 on 1 procs for 0 steps with 72 atoms

0.0% CPU use with 1 MPI tasks x 1 OpenMP threads
0.103286653269191 1000
-1481.42658366852 -1446.45523429196 -1414.92402436427
not skipped
Setting atom values ...
  1 settings made for z
Setting atom values ...
  1 settings made for y
Setting atom values ...
  1 settings made for z
Setting atom values ...
  1 settings made for y
-1414.92402436427 1000
Setting atom values ...
  1 settings made for z
Setting atom values ...
  1 settings made for y
Setting atom values ...
  1 settings made for z
Setting atom values ...
  1 settings made for y
WARNING: No fixes defined, atoms won't move (../verlet.cpp:55)
PPPM initialization ...
WARNING: Using polynomial approximation for long-range coulomb (../kspace.cpp:316)
  G vector (1/distance) = 0.400041
  grid = 8 15 15
  stencil order = 5
  estimated absolute RMS force accuracy = 0.000671313
  estimated relative force accuracy = 4.66201e-05
  using double precision FFTs
  3d grid and FFT values/proc = 8228 1800
Setting up Verlet run ...
  Unit style    : metal
  Current step  : 4
  Time step     : 0.001
Memory usage per processor = 5.63719 Mbytes
Step Temp E_pair E_mol TotEng Press 
       4            0   -1351.6256            0   -1351.6256    452429.05 
Loop time of 2.14577e-06 on 1 procs for 0 steps with 72 atoms

0.0% CPU use with 1 MPI tasks x 1 OpenMP threads
0.00108331244783073 1000
-1481.42658366852 -1446.45523429196 -1351.62562525835
not skipped
Setting atom values ...
  1 settings made for z
Setting atom values ...
  1 settings made for y
Setting atom values ...
  1 settings made for z
Setting atom values ...
  1 settings made for y
-1351.62562525835 1000
Setting atom values ...
  1 settings made for z
Setting atom values ...
  1 settings made for y
Setting atom values ...
  1 settings made for z
Setting atom values ...
  1 settings made for y
WARNING: No fixes defined, atoms won't move (../verlet.cpp:55)
PPPM initialization ...
WARNING: Using polynomial approximation for long-range coulomb (../kspace.cpp:316)
  G vector (1/distance) = 0.400041
  grid = 8 15 15
  stencil order = 5
  estimated absolute RMS force accuracy = 0.000671313
  estimated relative force accuracy = 4.66201e-05
  using double precision FFTs
  3d grid and FFT values/proc = 8228 1800
Setting up Verlet run ...
  Unit style    : metal
  Current step  : 4
  Time step     : 0.001
Memory usage per processor = 5.63719 Mbytes
Step Temp E_pair E_mol TotEng Press 
       4            0   -9644.5132            0   -9644.5132    -45394095 
Loop time of 1.90735e-06 on 1 procs for 0 steps with 72 atoms

0.0% CPU use with 1 MPI tasks x 1 OpenMP threads
2.22195407629836e+256 1000
-1481.42658366852 -1446.45523429196 -9644.51316248289
Setting atom values ...
  1 settings made for z
Setting atom values ...
  1 settings made for y
Setting atom values ...
  1 settings made for z
Setting atom values ...
  1 settings made for y
Rejected
-9644.51316248289 1000
Setting atom values ...
  1 settings made for z
Setting atom values ...
  1 settings made for y
Setting atom values ...
  1 settings made for z
Setting atom values ...
  1 settings made for y
WARNING: No fixes defined, atoms won't move (../verlet.cpp:55)
PPPM initialization ...
WARNING: Using polynomial approximation for long-range coulomb (../kspace.cpp:316)
  G vector (1/distance) = 0.400041
  grid = 8 15 15
  stencil order = 5
  estimated absolute RMS force accuracy = 0.000671313
  estimated relative force accuracy = 4.66201e-05
  using double precision FFTs
  3d grid and FFT values/proc = 8228 1800
Setting up Verlet run ...
  Unit style    : metal
  Current step  : 4
  Time step     : 0.001
Memory usage per processor = 5.63719 Mbytes
Step Temp E_pair E_mol TotEng Press 
       4            0    -1399.738            0    -1399.738    359386.14 
Loop time of 1.90735e-06 on 1 procs for 0 steps with 72 atoms

0.0% CPU use with 1 MPI tasks x 1 OpenMP threads
0.0346089198152744 1000
-1481.42658366852 -1446.45523429196 -1399.73795884733
not skipped
Setting atom values ...
  1 settings made for z
Setting atom values ...
  1 settings made for y
Setting atom values ...
  1 settings made for z
Setting atom values ...
  1 settings made for y
-1399.73795884733 1000
Setting atom values ...
  1 settings made for z
Setting atom values ...
  1 settings made for y
Setting atom values ...
  1 settings made for z
Setting atom values ...
  1 settings made for y
WARNING: No fixes defined, atoms won't move (../verlet.cpp:55)
PPPM initialization ...
WARNING: Using polynomial approximation for long-range coulomb (../kspace.cpp:316)
  G vector (1/distance) = 0.400041
  grid = 8 15 15
  stencil order = 5
  estimated absolute RMS force accuracy = 0.000671313
  estimated relative force accuracy = 4.66201e-05
  using double precision FFTs
  3d grid and FFT values/proc = 8228 1800
Setting up Verlet run ...
  Unit style    : metal
  Current step  : 4
  Time step     : 0.001
Memory usage per processor = 5.63719 Mbytes
Step Temp E_pair E_mol TotEng Press 
       4            0   -1443.3895            0   -1443.3895    207775.07 
Loop time of 2.14577e-06 on 1 procs for 0 steps with 72 atoms

0.0% CPU use with 1 MPI tasks x 1 OpenMP threads
0.801932673062775 1000
-1481.42658366852 -1446.45523429196 -1443.38953118864
not skipped
WARNING: No fixes defined, atoms won't move (../verlet.cpp:55)
PPPM initialization ...
WARNING: Using polynomial approximation for long-range coulomb (../kspace.cpp:316)
  G vector (1/distance) = 0.400041
  grid = 8 15 15
  stencil order = 5
  estimated absolute RMS force accuracy = 0.000671313
  estimated relative force accuracy = 4.66201e-05
  using double precision FFTs
  3d grid and FFT values/proc = 8228 1800
Setting up Verlet run ...
  Unit style    : metal
  Current step  : 4
  Time step     : 0.001
Memory usage per processor = 5.63719 Mbytes
Step Temp E_pair E_mol TotEng Press 
       4            0   -1443.3895            0   -1443.3895    207775.07 
       5            0   -1443.3895            0   -1443.3895    207775.07 
Loop time of 0.00366807 on 1 procs for 1 steps with 72 atoms

100.5% CPU use with 1 MPI tasks x 1 OpenMP threads
-1443.38953118864 1000
Setting atom values ...
  1 settings made for z
Setting atom values ...
  1 settings made for y
Setting atom values ...
  1 settings made for z
Setting atom values ...
  1 settings made for y
WARNING: No fixes defined, atoms won't move (../verlet.cpp:55)
PPPM initialization ...
WARNING: Using polynomial approximation for long-range coulomb (../kspace.cpp:316)
  G vector (1/distance) = 0.400041
  grid = 8 15 15
  stencil order = 5
  estimated absolute RMS force accuracy = 0.000671313
  estimated relative force accuracy = 4.66201e-05
  using double precision FFTs
  3d grid and FFT values/proc = 8228 1800
Setting up Verlet run ...
  Unit style    : metal
  Current step  : 5
  Time step     : 0.001
Memory usage per processor = 5.63719 Mbytes
Step Temp E_pair E_mol TotEng Press 
       5            0   -828.10694            0   -828.10694    735428.25 
Loop time of 2.14577e-06 on 1 procs for 0 steps with 72 atoms

0.0% CPU use with 1 MPI tasks x 1 OpenMP threads
5.76240889129336e-20 1000
-1481.42658366852 -1443.38953118864 -828.106944212186
not skipped
Setting atom values ...
  1 settings made for z
Setting atom values ...
  1 settings made for y
Setting atom values ...
  1 settings made for z
Setting atom values ...
  1 settings made for y
-828.106944212186 1000
Setting atom values ...
  1 settings made for z
Setting atom values ...
  1 settings made for y
Setting atom values ...
  1 settings made for z
Setting atom values ...
  1 settings made for y
WARNING: No fixes defined, atoms won't move (../verlet.cpp:55)
PPPM initialization ...
WARNING: Using polynomial approximation for long-range coulomb (../kspace.cpp:316)
  G vector (1/distance) = 0.400041
  grid = 8 15 15
  stencil order = 5
  estimated absolute RMS force accuracy = 0.000671313
  estimated relative force accuracy = 4.66201e-05
  using double precision FFTs
  3d grid and FFT values/proc = 8228 1800
Setting up Verlet run ...
  Unit style    : metal
  Current step  : 5
  Time step     : 0.001
Memory usage per processor = 5.63719 Mbytes
Step Temp E_pair E_mol TotEng Press 
       5            0   -1439.2763            0   -1439.2763    224470.29 
Loop time of 1.90735e-06 on 1 procs for 0 steps with 72 atoms

0.0% CPU use with 1 MPI tasks x 1 OpenMP threads
0.743673709341831 1000
-1481.42658366852 -1443.38953118864 -1439.27629642394
not skipped
WARNING: No fixes defined, atoms won't move (../verlet.cpp:55)
PPPM initialization ...
WARNING: Using polynomial approximation for long-range coulomb (../kspace.cpp:316)
  G vector (1/distance) = 0.400041
  grid = 8 15 15
  stencil order = 5
  estimated absolute RMS force accuracy = 0.000671313
  estimated relative force accuracy = 4.66201e-05
  using double precision FFTs
  3d grid and FFT values/proc = 8228 1800
Setting up Verlet run ...
  Unit style    : metal
  Current step  : 5
  Time step     : 0.001
Memory usage per processor = 5.63719 Mbytes
Step Temp E_pair E_mol TotEng Press 
       5            0   -1439.2763            0   -1439.2763    224470.29 
       6            0   -1439.2763            0   -1439.2763    224470.29 
Loop time of 0.00367999 on 1 procs for 1 steps with 72 atoms

100.6% CPU use with 1 MPI tasks x 1 OpenMP threads
-1439.27629642394 1000
Setting atom values ...
  1 settings made for z
Setting atom values ...
  1 settings made for y
Setting atom values ...
  1 settings made for z
Setting atom values ...
  1 settings made for y
WARNING: No fixes defined, atoms won't move (../verlet.cpp:55)
PPPM initialization ...
WARNING: Using polynomial approximation for long-range coulomb (../kspace.cpp:316)
  G vector (1/distance) = 0.400041
  grid = 8 15 15
  stencil order = 5
  estimated absolute RMS force accuracy = 0.000671313
  estimated relative force accuracy = 4.66201e-05
  using double precision FFTs
  3d grid and FFT values/proc = 8228 1800
Setting up Verlet run ...
  Unit style    : metal
  Current step  : 6
  Time step     : 0.001
Memory usage per processor = 5.63719 Mbytes
Step Temp E_pair E_mol TotEng Press 
       6            0   -1378.9339            0   -1378.9339    400285.15 
Loop time of 1.90735e-06 on 1 procs for 0 steps with 72 atoms

0.0% CPU use with 1 MPI tasks x 1 OpenMP threads
0.0129760352511762 1000
-1481.42658366852 -1439.27629642394 -1378.9339205216
not skipped
Setting atom values ...
  1 settings made for z
Setting atom values ...
  1 settings made for y
Setting atom values ...
  1 settings made for z
Setting atom values ...
  1 settings made for y
-1378.9339205216 1000
Setting atom values ...
  1 settings made for z
Setting atom values ...
  1 settings made for y
Setting atom values ...
  1 settings made for z
Setting atom values ...
  1 settings made for y
WARNING: No fixes defined, atoms won't move (../verlet.cpp:55)
PPPM initialization ...
WARNING: Using polynomial approximation for long-range coulomb (../kspace.cpp:316)
  G vector (1/distance) = 0.400041
  grid = 8 15 15
  stencil order = 5
  estimated absolute RMS force accuracy = 0.000671313
  estimated relative force accuracy = 4.66201e-05
  using double precision FFTs
  3d grid and FFT values/proc = 8228 1800
Setting up Verlet run ...
  Unit style    : metal
  Current step  : 6
  Time step     : 0.001
Memory usage per processor = 5.63719 Mbytes
Step Temp E_pair E_mol TotEng Press 
       6            0   -1275.7058            0   -1275.7058    571410.88 
Loop time of 3.09944e-06 on 1 procs for 0 steps with 72 atoms

0.0% CPU use with 1 MPI tasks x 1 OpenMP threads
7.67858479691672e-06 1000
-1481.42658366852 -1439.27629642394 -1275.70580615978
not skipped
Setting atom values ...
  1 settings made for z
Setting atom values ...
  1 settings made for y
Setting atom values ...
  1 settings made for z
Setting atom values ...
  1 settings made for y
-1275.70580615978 1000
Setting atom values ...
  1 settings made for z
Setting atom values ...
  1 settings made for y
Setting atom values ...
  1 settings made for z
Setting atom values ...
  1 settings made for y
WARNING: No fixes defined, atoms won't move (../verlet.cpp:55)
PPPM initialization ...
WARNING: Using polynomial approximation for long-range coulomb (../kspace.cpp:316)
  G vector (1/distance) = 0.400041
  grid = 8 15 15
  stencil order = 5
  estimated absolute RMS force accuracy = 0.000671313
  estimated relative force accuracy = 4.66201e-05
  using double precision FFTs
  3d grid and FFT values/proc = 8228 1800
Setting up Verlet run ...
  Unit style    : metal
  Current step  : 6
  Time step     : 0.001
Memory usage per processor = 5.63719 Mbytes
Step Temp E_pair E_mol TotEng Press 
       6            0   -1322.0809            0   -1322.0809    569195.54 
Loop time of 1.90735e-06 on 1 procs for 0 steps with 72 atoms

262.1% CPU use with 1 MPI tasks x 1 OpenMP threads
0.000216468262887854 1000
-1481.42658366852 -1439.27629642394 -1322.08092679881
not skipped
Setting atom values ...
  1 settings made for z
Setting atom values ...
  1 settings made for y
Setting atom values ...
  1 settings made for z
Setting atom values ...
  1 settings made for y
-1322.08092679881 1000
Setting atom values ...
  1 settings made for z
Setting atom values ...
  1 settings made for y
Setting atom values ...
  1 settings made for z
Setting atom values ...
  1 settings made for y
WARNING: No fixes defined, atoms won't move (../verlet.cpp:55)
PPPM initialization ...
WARNING: Using polynomial approximation for long-range coulomb (../kspace.cpp:316)
  G vector (1/distance) = 0.400041
  grid = 8 15 15
  stencil order = 5
  estimated absolute RMS force accuracy = 0.000671313
  estimated relative force accuracy = 4.66201e-05
  using double precision FFTs
  3d grid and FFT values/proc = 8228 1800
Setting up Verlet run ...
  Unit style    : metal
  Current step  : 6
  Time step     : 0.001
Memory usage per processor = 5.63719 Mbytes
Step Temp E_pair E_mol TotEng Press 
       6            0   -1422.9115            0   -1422.9115    308111.94 
Loop time of 2.14577e-06 on 1 procs for 0 steps with 72 atoms

233.0% CPU use with 1 MPI tasks x 1 OpenMP threads
0.307812250862194 1000
-1481.42658366852 -1439.27629642394 -1422.91150118786
not skipped
WARNING: No fixes defined, atoms won't move (../verlet.cpp:55)
PPPM initialization ...
WARNING: Using polynomial approximation for long-range coulomb (../kspace.cpp:316)
  G vector (1/distance) = 0.400041
  grid = 8 15 15
  stencil order = 5
  estimated absolute RMS force accuracy = 0.000671313
  estimated relative force accuracy = 4.66201e-05
  using double precision FFTs
  3d grid and FFT values/proc = 8228 1800
Setting up Verlet run ...
  Unit style    : metal
  Current step  : 6
  Time step     : 0.001
Memory usage per processor = 5.63719 Mbytes
Step Temp E_pair E_mol TotEng Press 
       6            0   -1422.9115            0   -1422.9115    308111.94 
       7            0   -1422.9115            0   -1422.9115    308111.94 
Loop time of 0.00367093 on 1 procs for 1 steps with 72 atoms

100.2% CPU use with 1 MPI tasks x 1 OpenMP threads
-1422.91150118786 1000
Setting atom values ...
  1 settings made for z
Setting atom values ...
  1 settings made for y
Setting atom values ...
  1 settings made for z
Setting atom values ...
  1 settings made for y
WARNING: No fixes defined, atoms won't move (../verlet.cpp:55)
PPPM initialization ...
WARNING: Using polynomial approximation for long-range coulomb (../kspace.cpp:316)
  G vector (1/distance) = 0.400041
  grid = 8 15 15
  stencil order = 5
  estimated absolute RMS force accuracy = 0.000671313
  estimated relative force accuracy = 4.66201e-05
  using double precision FFTs
  3d grid and FFT values/proc = 8228 1800
Setting up Verlet run ...
  Unit style    : metal
  Current step  : 7
  Time step     : 0.001
Memory usage per processor = 5.63719 Mbytes
Step Temp E_pair E_mol TotEng Press 
       7            0   -1772.4313            0   -1772.4313   -1501824.2 
Loop time of 1.90735e-06 on 1 procs for 0 steps with 72 atoms

0.0% CPU use with 1 MPI tasks x 1 OpenMP threads
84957986047.0936 1000
-1481.42658366852 -1422.91150118786 -1772.43126076342
Setting atom values ...
  1 settings made for z
Setting atom values ...
  1 settings made for y
Setting atom values ...
  1 settings made for z
Setting atom values ...
  1 settings made for y
Rejected
-1772.43126076342 1000
Setting atom values ...
  1 settings made for z
Setting atom values ...
  1 settings made for y
Setting atom values ...
  1 settings made for z
Setting atom values ...
  1 settings made for y
WARNING: No fixes defined, atoms won't move (../verlet.cpp:55)
PPPM initialization ...
WARNING: Using polynomial approximation for long-range coulomb (../kspace.cpp:316)
  G vector (1/distance) = 0.400041
  grid = 8 15 15
  stencil order = 5
  estimated absolute RMS force accuracy = 0.000671313
  estimated relative force accuracy = 4.66201e-05
  using double precision FFTs
  3d grid and FFT values/proc = 8228 1800
Setting up Verlet run ...
  Unit style    : metal
  Current step  : 7
  Time step     : 0.001
Memory usage per processor = 5.63719 Mbytes
Step Temp E_pair E_mol TotEng Press 
       7            0   -599.02324            0   -599.02324    639629.59 
Loop time of 1.90735e-06 on 1 procs for 0 steps with 72 atoms

0.0% CPU use with 1 MPI tasks x 1 OpenMP threads
1.72850674219542e-26 1000
-1481.42658366852 -1422.91150118786 -599.023243731354
not skipped
Setting atom values ...
  1 settings made for z
Setting atom values ...
  1 settings made for y
Setting atom values ...
  1 settings made for z
Setting atom values ...
  1 settings made for y
-599.023243731354 1000
Setting atom values ...
  1 settings made for z
Setting atom values ...
  1 settings made for y
Setting atom values ...
  1 settings made for z
Setting atom values ...
  1 settings made for y
WARNING: No fixes defined, atoms won't move (../verlet.cpp:55)
PPPM initialization ...
WARNING: Using polynomial approximation for long-range coulomb (../kspace.cpp:316)
  G vector (1/distance) = 0.400041
  grid = 8 15 15
  stencil order = 5
  estimated absolute RMS force accuracy = 0.000671313
  estimated relative force accuracy = 4.66201e-05
  using double precision FFTs
  3d grid and FFT values/proc = 8228 1800
Setting up Verlet run ...
  Unit style    : metal
  Current step  : 7
  Time step     : 0.001
Memory usage per processor = 5.63719 Mbytes
Step Temp E_pair E_mol TotEng Press 
       7            0    -1378.032            0    -1378.032    466602.81 
Loop time of 2.14577e-06 on 1 procs for 0 steps with 72 atoms

0.0% CPU use with 1 MPI tasks x 1 OpenMP threads
0.0395052805225721 1000
-1481.42658366852 -1422.91150118786 -1378.03204380044
not skipped
Setting atom values ...
  1 settings made for z
Setting atom values ...
  1 settings made for y
Setting atom values ...
  1 settings made for z
Setting atom values ...
  1 settings made for y
-1378.03204380044 1000
Setting atom values ...
[...]
  using double precision FFTs
  3d grid and FFT values/proc = 8228 1800
Setting up Verlet run ...
  Unit style    : metal
  Current step  : 139
  Time step     : 0.001
Memory usage per processor = 5.63719 Mbytes
Step Temp E_pair E_mol TotEng Press 
     139            0   -1068.2396            0   -1068.2396   -3691526.2 
Loop time of 1.90735e-06 on 1 procs for 0 steps with 72 atoms

0.0% CPU use with 1 MPI tasks x 1 OpenMP threads
0.000143690520288502 999.766
-1481.42658366852 -1191.09763760845 -1068.23960511934
not skipped
Setting atom values ...
  1 settings made for z
Setting atom values ...
  1 settings made for y
Setting atom values ...
  1 settings made for z
Setting atom values ...
  1 settings made for y
-1068.23960511934 999.766
Setting atom values ...
  1 settings made for z
Setting atom values ...
  1 settings made for y
Setting atom values ...
  1 settings made for z
Setting atom values ...
  1 settings made for y
WARNING: No fixes defined, atoms won't move (../verlet.cpp:55)
PPPM initialization ...
WARNING: Using polynomial approximation for long-range coulomb (../kspace.cpp:316)
  G vector (1/distance) = 0.400041
  grid = 8 15 15
  stencil order = 5
  estimated absolute RMS force accuracy = 0.000671313
  estimated relative force accuracy = 4.66201e-05
  using double precision FFTs
  3d grid and FFT values/proc = 8228 1800
Setting up Verlet run ...
  Unit style    : metal
  Current step  : 139
  Time step     : 0.001
Memory usage per processor = 5.63719 Mbytes
Step Temp E_pair E_mol TotEng Press 
     139            0   -960.44374            0   -960.44374     -3465244 
Loop time of 1.90735e-06 on 1 procs for 0 steps with 72 atoms

0.0% CPU use with 1 MPI tasks x 1 OpenMP threads
6.10869390058028e-08 999.766
-1481.42658366852 -1191.09763760845 -960.443737728031
not skipped
Setting atom values ...
  1 settings made for z
Setting atom values ...
  1 settings made for y
Setting atom values ...
  1 settings made for z
Setting atom values ...
  1 settings made for y
-960.443737728031 999.766
Setting atom values ...
  1 settings made for z
Setting atom values ...
  1 settings made for y
Setting atom values ...
  1 settings made for z
Setting atom values ...
  1 settings made for y
WARNING: No fixes defined, atoms won't move (../verlet.cpp:55)
PPPM initialization ...
WARNING: Using polynomial approximation for long-range coulomb (../kspace.cpp:316)
  G vector (1/distance) = 0.400041
  grid = 8 15 15
  stencil order = 5
  estimated absolute RMS force accuracy = 0.000671313
  estimated relative force accuracy = 4.66201e-05
  using double precision FFTs
  3d grid and FFT values/proc = 8228 1800
Setting up Verlet run ...
  Unit style    : metal
  Current step  : 139
  Time step     : 0.001
Memory usage per processor = 5.63719 Mbytes
Step Temp E_pair E_mol TotEng Press 
     139            0   -1129.8848            0   -1129.8848   -3734461.8 
Loop time of 2.14577e-06 on 1 procs for 0 steps with 72 atoms

0.0% CPU use with 1 MPI tasks x 1 OpenMP threads
0.0121751517792078 999.766
-1481.42658366852 -1191.09763760845 -1129.88476833316
not skipped
Setting atom values ...
  1 settings made for z
Setting atom values ...
  1 settings made for y
Setting atom values ...
  1 settings made for z
Setting atom values ...
  1 settings made for y
-1129.88476833316 999.766
Setting atom values ...
  1 settings made for z
Setting atom values ...
  1 settings made for y
Setting atom values ...
  1 settings made for z
Setting atom values ...
  1 settings made for y
WARNING: No fixes defined, atoms won't move (../verlet.cpp:55)
PPPM initialization ...
WARNING: Using polynomial approximation for long-range coulomb (../kspace.cpp:316)
  G vector (1/distance) = 0.400041
  grid = 8 15 15
  stencil order = 5
  estimated absolute RMS force accuracy = 0.000671313
  estimated relative force accuracy = 4.66201e-05
  using double precision FFTs
  3d grid and FFT values/proc = 8228 1800
Setting up Verlet run ...
  Unit style    : metal
  Current step  : 139
  Time step     : 0.001
Memory usage per processor = 5.63719 Mbytes
Step Temp E_pair E_mol TotEng Press 
     139            0   -1195.4205            0   -1195.4205   -3893891.9 
Loop time of 1.90735e-06 on 1 procs for 0 steps with 72 atoms

0.0% CPU use with 1 MPI tasks x 1 OpenMP threads
1.36522796260318 999.766
-1481.42658366852 -1191.09763760845 -1195.4205344286
not skipped
WARNING: No fixes defined, atoms won't move (../verlet.cpp:55)
PPPM initialization ...
WARNING: Using polynomial approximation for long-range coulomb (../kspace.cpp:316)
  G vector (1/distance) = 0.400041
  grid = 8 15 15
  stencil order = 5
  estimated absolute RMS force accuracy = 0.000671313
  estimated relative force accuracy = 4.66201e-05
  using double precision FFTs
  3d grid and FFT values/proc = 8228 1800
Setting up Verlet run ...
  Unit style    : metal
  Current step  : 139
  Time step     : 0.001
Memory usage per processor = 5.63719 Mbytes
Step Temp E_pair E_mol TotEng Press 
     139            0   -1195.4205            0   -1195.4205   -3893891.9 
     140            0   -1195.4205            0   -1195.4205   -3893891.9 
Loop time of 0.0036099 on 1 procs for 1 steps with 72 atoms

0.0% CPU use with 1 MPI tasks x 1 OpenMP threads
-1195.4205344286 999.766
Setting atom values ...
  1 settings made for z
Setting atom values ...
  1 settings made for y
Setting atom values ...
  1 settings made for z
Setting atom values ...
  1 settings made for y
WARNING: No fixes defined, atoms won't move (../verlet.cpp:55)
PPPM initialization ...
WARNING: Using polynomial approximation for long-range coulomb (../kspace.cpp:316)
  G vector (1/distance) = 0.400041
  grid = 8 15 15
  stencil order = 5
  estimated absolute RMS force accuracy = 0.000671313
  estimated relative force accuracy = 4.66201e-05
  using double precision FFTs
  3d grid and FFT values/proc = 8228 1800
Setting up Verlet run ...
  Unit style    : metal
  Current step  : 140
  Time step     : 0.001
Memory usage per processor = 5.63719 Mbytes
Step Temp E_pair E_mol TotEng Press 
     140            0   -1183.2136            0   -1183.2136   -3802938.7 
Loop time of 2.14577e-06 on 1 procs for 0 steps with 72 atoms

186.4% CPU use with 1 MPI tasks x 1 OpenMP threads
0.415154597988182 999.766
-1481.42658366852 -1195.4205344286 -1183.21360953357
not skipped
Setting atom values ...
  1 settings made for z
Setting atom values ...
  1 settings made for y
Setting atom values ...
  1 settings made for z
Setting atom values ...
  1 settings made for y
-1183.21360953357 999.766
Setting atom values ...
  1 settings made for z
Setting atom values ...
  1 settings made for y
Setting atom values ...
  1 settings made for z
Setting atom values ...
  1 settings made for y
WARNING: No fixes defined, atoms won't move (../verlet.cpp:55)
PPPM initialization ...
WARNING: Using polynomial approximation for long-range coulomb (../kspace.cpp:316)
  G vector (1/distance) = 0.400041
  grid = 8 15 15
  stencil order = 5
  estimated absolute RMS force accuracy = 0.000671313
  estimated relative force accuracy = 4.66201e-05
  using double precision FFTs
  3d grid and FFT values/proc = 8228 1800
Setting up Verlet run ...
  Unit style    : metal
  Current step  : 140
  Time step     : 0.001
Memory usage per processor = 5.63719 Mbytes
Step Temp E_pair E_mol TotEng Press 
     140            0   -1060.7302            0   -1060.7302   -3575928.4 
Loop time of 2.14577e-06 on 1 procs for 0 steps with 72 atoms

233.0% CPU use with 1 MPI tasks x 1 OpenMP threads
6.12851717571095e-05 999.766
-1481.42658366852 -1195.4205344286 -1060.73021710942
not skipped
Setting atom values ...
  1 settings made for z
Setting atom values ...
  1 settings made for y
Setting atom values ...
  1 settings made for z
Setting atom values ...
  1 settings made for y
-1060.73021710942 999.766
Setting atom values ...
  1 settings made for z
Setting atom values ...
  1 settings made for y
Setting atom values ...
  1 settings made for z
Setting atom values ...
  1 settings made for y
WARNING: No fixes defined, atoms won't move (../verlet.cpp:55)
PPPM initialization ...
WARNING: Using polynomial approximation for long-range coulomb (../kspace.cpp:316)
  G vector (1/distance) = 0.400041
  grid = 8 15 15
  stencil order = 5
  estimated absolute RMS force accuracy = 0.000671313
  estimated relative force accuracy = 4.66201e-05
  using double precision FFTs
  3d grid and FFT values/proc = 8228 1800
Setting up Verlet run ...
  Unit style    : metal
  Current step  : 140
  Time step     : 0.001
Memory usage per processor = 5.63719 Mbytes
Step Temp E_pair E_mol TotEng Press 
     140            0   -279.67295            0   -279.67295   -3284818.6 
Loop time of 1.90735e-06 on 1 procs for 0 steps with 72 atoms

0.0% CPU use with 1 MPI tasks x 1 OpenMP threads
2.28350081462986e-29 999.766
-1481.42658366852 -1195.4205344286 -279.672953038746
not skipped
Setting atom values ...
  1 settings made for z
Setting atom values ...
  1 settings made for y
Setting atom values ...
  1 settings made for z
Setting atom values ...
  1 settings made for y
-279.672953038746 999.766
Setting atom values ...
  1 settings made for z
Setting atom values ...
  1 settings made for y
Setting atom values ...
  1 settings made for z
Setting atom values ...
  1 settings made for y
WARNING: No fixes defined, atoms won't move (../verlet.cpp:55)
PPPM initialization ...
WARNING: Using polynomial approximation for long-range coulomb (../kspace.cpp:316)
  G vector (1/distance) = 0.400041
  grid = 8 15 15
  stencil order = 5
  estimated absolute RMS force accuracy = 0.000671313
  estimated relative force accuracy = 4.66201e-05
  using double precision FFTs
  3d grid and FFT values/proc = 8228 1800
Setting up Verlet run ...
  Unit style    : metal
  Current step  : 140
  Time step     : 0.001
Memory usage per processor = 5.63719 Mbytes
Step Temp E_pair E_mol TotEng Press 
     140            0   -1185.2911            0   -1185.2911   -3864112.2 
Loop time of 3.09944e-06 on 1 procs for 0 steps with 72 atoms

0.0% CPU use with 1 MPI tasks x 1 OpenMP threads
0.482154910467759 999.766
-1481.42658366852 -1195.4205344286 -1185.29110213783
not skipped
WARNING: No fixes defined, atoms won't move (../verlet.cpp:55)
PPPM initialization ...
WARNING: Using polynomial approximation for long-range coulomb (../kspace.cpp:316)
  G vector (1/distance) = 0.400041
  grid = 8 15 15
  stencil order = 5
  estimated absolute RMS force accuracy = 0.000671313
  estimated relative force accuracy = 4.66201e-05
  using double precision FFTs
  3d grid and FFT values/proc = 8228 1800
Setting up Verlet run ...
  Unit style    : metal
  Current step  : 140
  Time step     : 0.001
Memory usage per processor = 5.63719 Mbytes
Step Temp E_pair E_mol TotEng Press 
     140            0   -1185.2911            0   -1185.2911   -3864112.2 
     141            0   -1185.2911            0   -1185.2911   -3864112.2 
Loop time of 0.00364208 on 1 procs for 1 steps with 72 atoms

99.8% CPU use with 1 MPI tasks x 1 OpenMP threads
-1185.29110213783 999.766
Setting atom values ...
  1 settings made for z
Setting atom values ...
  1 settings made for y
Setting atom values ...
  1 settings made for z
Setting atom values ...
  1 settings made for y
WARNING: No fixes defined, atoms won't move (../verlet.cpp:55)
PPPM initialization ...
WARNING: Using polynomial approximation for long-range coulomb (../kspace.cpp:316)
  G vector (1/distance) = 0.400041
  grid = 8 15 15
  stencil order = 5
  estimated absolute RMS force accuracy = 0.000671313
  estimated relative force accuracy = 4.66201e-05
  using double precision FFTs
  3d grid and FFT values/proc = 8228 1800
Setting up Verlet run ...
  Unit style    : metal
  Current step  : 141
  Time step     : 0.001
Memory usage per processor = 5.63719 Mbytes
Step Temp E_pair E_mol TotEng Press 
     141            0    -914.9873            0    -914.9873   -845131.72 
Loop time of 1.90735e-06 on 1 procs for 0 steps with 72 atoms

0.0% CPU use with 1 MPI tasks x 1 OpenMP threads
3.51428828561711e-09 999.766
-1481.42658366852 -1185.29110213783 -914.987301206689
not skipped
Setting atom values ...
  1 settings made for z
Setting atom values ...
  1 settings made for y
Setting atom values ...
  1 settings made for z
Setting atom values ...
  1 settings made for y
-914.987301206689 999.766
Setting atom values ...
  1 settings made for z
Setting atom values ...
  1 settings made for y
Setting atom values ...
  1 settings made for z
Setting atom values ...
  1 settings made for y
WARNING: No fixes defined, atoms won't move (../verlet.cpp:55)
PPPM initialization ...
WARNING: Using polynomial approximation for long-range coulomb (../kspace.cpp:316)
  G vector (1/distance) = 0.400041
  grid = 8 15 15
  stencil order = 5
  estimated absolute RMS force accuracy = 0.000671313
  estimated relative force accuracy = 4.66201e-05
  using double precision FFTs
  3d grid and FFT values/proc = 8228 1800
Setting up Verlet run ...
  Unit style    : metal
  Current step  : 141
  Time step     : 0.001
Memory usage per processor = 5.63719 Mbytes
Step Temp E_pair E_mol TotEng Press 
     141            0   -1100.3787            0   -1100.3787     -3657080 
Loop time of 2.14577e-06 on 1 procs for 0 steps with 72 atoms

0.0% CPU use with 1 MPI tasks x 1 OpenMP threads
0.00220920042224097 999.766
-1481.42658366852 -1185.29110213783 -1100.37868978164
not skipped
Setting atom values ...
  1 settings made for z
Setting atom values ...
  1 settings made for y
Setting atom values ...
  1 settings made for z
Setting atom values ...
  1 settings made for y
-1100.37868978164 0.026
Setting atom values ...
  1 settings made for z
Setting atom values ...
  1 settings made for y
Setting atom values ...
  1 settings made for z
Setting atom values ...
  1 settings made for y
WARNING: No fixes defined, atoms won't move (../verlet.cpp:55)
PPPM initialization ...
WARNING: Using polynomial approximation for long-range coulomb (../kspace.cpp:316)
  G vector (1/distance) = 0.400041
  grid = 8 15 15
  stencil order = 5
  estimated absolute RMS force accuracy = 0.000671313
  estimated relative force accuracy = 4.66201e-05
  using double precision FFTs
  3d grid and FFT values/proc = 8228 1800
Setting up Verlet run ...
  Unit style    : metal
  Current step  : 141
  Time step     : 0.001
Memory usage per processor = 5.63719 Mbytes
Step Temp E_pair E_mol TotEng Press 
     141            0   -308.44326            0   -308.44326   -3668318.3 
Loop time of 1.90735e-06 on 1 procs for 0 steps with 72 atoms

0.0% CPU use with 1 MPI tasks x 1 OpenMP threads
0 0.026
-1481.42658366852 -1185.29110213783 -308.443262323203
not skipped
Setting atom values ...
  1 settings made for z
Setting atom values ...
  1 settings made for y
Setting atom values ...
  1 settings made for z
Setting atom values ...
  1 settings made for y
moves = 1 Ratio of accepted/Total = 0 %
-308.443262323203 0.026
Setting atom values ...
  1 settings made for z
Setting atom values ...
  1 settings made for y
Setting atom values ...
  1 settings made for z
Setting atom values ...
  1 settings made for y
WARNING: No fixes defined, atoms won't move (../verlet.cpp:55)
PPPM initialization ...
WARNING: Using polynomial approximation for long-range coulomb (../kspace.cpp:316)
  G vector (1/distance) = 0.400041
  grid = 8 15 15
  stencil order = 5
  estimated absolute RMS force accuracy = 0.000671313
  estimated relative force accuracy = 4.66201e-05
  using double precision FFTs
  3d grid and FFT values/proc = 8228 1800
Setting up Verlet run ...
  Unit style    : metal
  Current step  : 141
  Time step     : 0.001
Memory usage per processor = 5.63719 Mbytes
Step Temp E_pair E_mol TotEng Press 
     141            0   -404.38187            0   -404.38187   -3491709.8 
Loop time of 2.14577e-06 on 1 procs for 0 steps with 72 atoms

0.0% CPU use with 1 MPI tasks x 1 OpenMP threads
0 0.026
-1481.42658366852 -1185.29110213783 -404.381865137305
not skipped
Setting atom values ...
  1 settings made for z
Setting atom values ...
  1 settings made for y
Setting atom values ...
  1 settings made for z
Setting atom values ...
  1 settings made for y
moves = 2 Ratio of accepted/Total = 0 %
-404.381865137305 0.026
Setting atom values ...
  1 settings made for z
Setting atom values ...
  1 settings made for y
Setting atom values ...
  1 settings made for z
Setting atom values ...
  1 settings made for y
WARNING: No fixes defined, atoms won't move (../verlet.cpp:55)
PPPM initialization ...
WARNING: Using polynomial approximation for long-range coulomb (../kspace.cpp:316)
  G vector (1/distance) = 0.400041
  grid = 8 15 15
  stencil order = 5
  estimated absolute RMS force accuracy = 0.000671313
  estimated relative force accuracy = 4.66201e-05
  using double precision FFTs
  3d grid and FFT values/proc = 8228 1800
Setting up Verlet run ...
  Unit style    : metal
  Current step  : 141
  Time step     : 0.001
Memory usage per processor = 5.63719 Mbytes
Step Temp E_pair E_mol TotEng Press 
     141            0    -1138.117            0    -1138.117   -3667927.6 
Loop time of 2.14577e-06 on 1 procs for 0 steps with 72 atoms

0.0% CPU use with 1 MPI tasks x 1 OpenMP threads
0 0.026
-1481.42658366852 -1185.29110213783 -1138.11702254607
not skipped
Setting atom values ...
  1 settings made for z
Setting atom values ...
  1 settings made for y
Setting atom values ...
  1 settings made for z
Setting atom values ...
  1 settings made for y
moves = 3 Ratio of accepted/Total = 0 %
-1138.11702254607 0.026
Setting atom values ...
  1 settings made for z
Setting atom values ...
  1 settings made for y
Setting atom values ...
  1 settings made for z
Setting atom values ...
  1 settings made for y
WARNING: No fixes defined, atoms won't move (../verlet.cpp:55)
PPPM initialization ...
WARNING: Using polynomial approximation for long-range coulomb (../kspace.cpp:316)
  G vector (1/distance) = 0.400041
  grid = 8 15 15
  stencil order = 5
  estimated absolute RMS force accuracy = 0.000671313
  estimated relative force accuracy = 4.66201e-05
  using double precision FFTs
  3d grid and FFT values/proc = 8228 1800
Setting up Verlet run ...
  Unit style    : metal
  Current step  : 141
  Time step     : 0.001
Memory usage per processor = 5.63719 Mbytes
Step Temp E_pair E_mol TotEng Press 
     141            0   -1110.7358            0   -1110.7358   -3754647.6 
Loop time of 1.90735e-06 on 1 procs for 0 steps with 72 atoms

0.0% CPU use with 1 MPI tasks x 1 OpenMP threads
0 0.026
-1481.42658366852 -1185.29110213783 -1110.73583139194
not skipped
Setting atom values ...
  1 settings made for z
Setting atom values ...
  1 settings made for y
Setting atom values ...
  1 settings made for z
Setting atom values ...
  1 settings made for y
moves = 4 Ratio of accepted/Total = 0 %
-1110.73583139194 0.026
Setting atom values ...
  1 settings made for z
Setting atom values ...
  1 settings made for y
Setting atom values ...
  1 settings made for z
Setting atom values ...
  1 settings made for y
WARNING: No fixes defined, atoms won't move (../verlet.cpp:55)
PPPM initialization ...
WARNING: Using polynomial approximation for long-range coulomb (../kspace.cpp:316)
  G vector (1/distance) = 0.400041
  grid = 8 15 15
  stencil order = 5
  estimated absolute RMS force accuracy = 0.000671313
  estimated relative force accuracy = 4.66201e-05
  using double precision FFTs
  3d grid and FFT values/proc = 8228 1800
Setting up Verlet run ...
  Unit style    : metal
  Current step  : 141
  Time step     : 0.001
Memory usage per processor = 5.63719 Mbytes
Step Temp E_pair E_mol TotEng Press 
     141            0   -1187.8861            0   -1187.8861   -3916088.8 
Loop time of 2.14577e-06 on 1 procs for 0 steps with 72 atoms

0.0% CPU use with 1 MPI tasks x 1 OpenMP threads
inf 0.026
-1481.42658366852 -1185.29110213783 -1187.88609968278
not skipped
ERROR: Invalid Boolean syntax in if command (../variable.cpp:4718)
