LAMMPS (1 Jul 2016-ICMS)
WARNING: OMP_NUM_THREADS environment is not set. (../comm.cpp:90)
  using 1 OpenMP thread(s) per MPI task
Optimise lattice constant of MgO crystal
Created orthogonal box = (0 0 0) to (4.212 12.636 12.636)
  1 by 1 by 1 MPI processor grid
Scanning dump file ...
Reading snapshot from dump file ...
  orthogonal box = (0 0 0) to (4.212 12.636 12.636)
  0 atoms before read
  72 atoms in snapshot
  0 atoms purged
  0 atoms replaced
  0 atoms trimmed
  72 atoms added
  72 atoms after read
Setting atom values ...
  36 settings made for charge
Setting atom values ...
  36 settings made for charge
WARNING: No fixes defined, atoms won't move (../verlet.cpp:55)
PPPM initialization ...
WARNING: Using polynomial approximation for long-range coulomb (../kspace.cpp:316)
  G vector (1/distance) = 0.400041
  grid = 8 15 15
  stencil order = 5
  estimated absolute RMS force accuracy = 0.000671313
  estimated relative force accuracy = 4.66201e-05
  using double precision FFTs
  3d grid and FFT values/proc = 8228 1800
Neighbor list info ...
  2 neighbor list requests
  update every 1 steps, delay 0 steps, check yes
  max neighbors/atom: 2000, page size: 100000
  master list distance cutoff = 10
  ghost atom cutoff = 10
  binsize = 5, bins = 1 3 3
Setting up Verlet run ...
  Unit style    : metal
  Current step  : 0
  Time step     : 0.001
Memory usage per processor = 3.49055 Mbytes
Step Temp E_pair E_mol TotEng Press 
       0            0   -1481.4266            0   -1481.4266    672.06402 
Loop time of 9.53674e-07 on 1 procs for 0 steps with 72 atoms

0.0% CPU use with 1 MPI tasks x 1 OpenMP threads

MPI task timing breakdown:
Section |  min time  |  avg time  |  max time  |%varavg| %total
---------------------------------------------------------------
Pair    | 0          | 0          | 0          |   0.0 |  0.00
Kspace  | 0          | 0          | 0          |   0.0 |  0.00
Neigh   | 0          | 0          | 0          |   0.0 |  0.00
Comm    | 0          | 0          | 0          |   0.0 |  0.00
Output  | 0          | 0          | 0          |   0.0 |  0.00
Modify  | 0          | 0          | 0          |   0.0 |  0.00
Other   |            | 9.537e-07  |            |       |100.00

Nlocal:    72 ave 72 max 72 min
Histogram: 1 0 0 0 0 0 0 0 0 0
Nghost:    2403 ave 2403 max 2403 min
Histogram: 1 0 0 0 0 0 0 0 0 0
Neighs:    16560 ave 16560 max 16560 min
Histogram: 1 0 0 0 0 0 0 0 0 0

Total # of neighbors = 16560
Ave neighs/atom = 230
Neighbor list builds = 0
Dangerous builds = 0
Setting atom values ...
  72 settings made for z
Setting atom values ...
  72 settings made for y
WARNING: No fixes defined, atoms won't move (../verlet.cpp:55)
PPPM initialization ...
WARNING: Using polynomial approximation for long-range coulomb (../kspace.cpp:316)
  G vector (1/distance) = 0.400041
  grid = 8 15 15
  stencil order = 5
  estimated absolute RMS force accuracy = 0.000671313
  estimated relative force accuracy = 4.66201e-05
  using double precision FFTs
  3d grid and FFT values/proc = 8228 1800
Setting up Verlet run ...
  Unit style    : metal
  Current step  : 0
  Time step     : 0.001
Memory usage per processor = 4.7433 Mbytes
Step Temp E_pair E_mol TotEng Press 
       0            0   -1481.4266            0   -1481.4266    672.06402 
Loop time of 1.19209e-06 on 1 procs for 0 steps with 72 atoms

0.0% CPU use with 1 MPI tasks x 1 OpenMP threads

MPI task timing breakdown:
Section |  min time  |  avg time  |  max time  |%varavg| %total
---------------------------------------------------------------
Pair    | 0          | 0          | 0          |   0.0 |  0.00
Kspace  | 0          | 0          | 0          |   0.0 |  0.00
Neigh   | 0          | 0          | 0          |   0.0 |  0.00
Comm    | 0          | 0          | 0          |   0.0 |  0.00
Output  | 0          | 0          | 0          |   0.0 |  0.00
Modify  | 0          | 0          | 0          |   0.0 |  0.00
Other   |            | 1.192e-06  |            |       |100.00

Nlocal:    72 ave 72 max 72 min
Histogram: 1 0 0 0 0 0 0 0 0 0
Nghost:    2403 ave 2403 max 2403 min
Histogram: 1 0 0 0 0 0 0 0 0 0
Neighs:    16560 ave 16560 max 16560 min
Histogram: 1 0 0 0 0 0 0 0 0 0

Total # of neighbors = 16560
Ave neighs/atom = 230
Neighbor list builds = 0
Dangerous builds = 0
1000
Setting atom values ...
  1 settings made for z
Setting atom values ...
  1 settings made for y
Setting atom values ...
  1 settings made for z
Setting atom values ...
  1 settings made for y
Step Temp E_pair E_mol TotEng Press 
       0            0   -1481.4266            0   -1481.4266    672.06402 
       1            0    -1460.918            0    -1460.918    91971.329 
Loop time of 0.00197601 on 1 procs for 1 steps with 72 atoms

202.4% CPU use with 1 MPI tasks x 1 OpenMP threads
Setting atom values ...
  1 settings made for z
Setting atom values ...
  1 settings made for y
Setting atom values ...
  1 settings made for z
Setting atom values ...
  1 settings made for y
1000
Setting atom values ...
  1 settings made for z
Setting atom values ...
  1 settings made for y
Setting atom values ...
  1 settings made for z
Setting atom values ...
  1 settings made for y
Step Temp E_pair E_mol TotEng Press 
       1            0    -1460.918            0    -1460.918    91971.329 
       2            0   -1452.9076            0   -1452.9076    115868.98 
Loop time of 0.00198603 on 1 procs for 1 steps with 72 atoms

201.4% CPU use with 1 MPI tasks x 1 OpenMP threads
Setting atom values ...
  1 settings made for z
Setting atom values ...
  1 settings made for y
Setting atom values ...
  1 settings made for z
Setting atom values ...
  1 settings made for y
1000
Setting atom values ...
  1 settings made for z
Setting atom values ...
  1 settings made for y
Setting atom values ...
  1 settings made for z
Setting atom values ...
  1 settings made for y
Step Temp E_pair E_mol TotEng Press 
       2            0   -1452.9076            0   -1452.9076    115868.98 
       3            0   -1476.3686            0   -1476.3686    31557.188 
Loop time of 0.00196195 on 1 procs for 1 steps with 72 atoms

0.0% CPU use with 1 MPI tasks x 1 OpenMP threads
1000
Setting atom values ...
  1 settings made for z
Setting atom values ...
  1 settings made for y
Setting atom values ...
  1 settings made for z
Setting atom values ...
  1 settings made for y
Step Temp E_pair E_mol TotEng Press 
       3            0   -1476.3686            0   -1476.3686    31557.188 
       4            0   -1461.2521            0   -1461.2521    104865.82 
Loop time of 0.00196099 on 1 procs for 1 steps with 72 atoms

0.0% CPU use with 1 MPI tasks x 1 OpenMP threads
1000
Setting atom values ...
  1 settings made for z
Setting atom values ...
  1 settings made for y
Setting atom values ...
  1 settings made for z
Setting atom values ...
  1 settings made for y
Step Temp E_pair E_mol TotEng Press 
       4            0   -1461.2521            0   -1461.2521    104865.82 
       5            0   -1452.6787            0   -1452.6787    150035.39 
Loop time of 0.00194097 on 1 procs for 1 steps with 72 atoms

206.1% CPU use with 1 MPI tasks x 1 OpenMP threads
Setting atom values ...
  1 settings made for z
Setting atom values ...
  1 settings made for y
Setting atom values ...
  1 settings made for z
Setting atom values ...
  1 settings made for y
1000
Setting atom values ...
  1 settings made for z
Setting atom values ...
  1 settings made for y
Setting atom values ...
  1 settings made for z
Setting atom values ...
  1 settings made for y
Step Temp E_pair E_mol TotEng Press 
       5            0   -1452.6787            0   -1452.6787    150035.39 
       6            0   -1440.3896            0   -1440.3896    201366.15 
Loop time of 0.002666 on 1 procs for 1 steps with 72 atoms

150.0% CPU use with 1 MPI tasks x 1 OpenMP threads
Setting atom values ...
  1 settings made for z
Setting atom values ...
  1 settings made for y
Setting atom values ...
  1 settings made for z
Setting atom values ...
  1 settings made for y
1000
Setting atom values ...
  1 settings made for z
Setting atom values ...
  1 settings made for y
Setting atom values ...
  1 settings made for z
Setting atom values ...
  1 settings made for y
Step Temp E_pair E_mol TotEng Press 
       6            0   -1440.3896            0   -1440.3896    201366.15 
       7            0   -1453.3738            0   -1453.3738    150855.74 
Loop time of 0.00262713 on 1 procs for 1 steps with 72 atoms

152.3% CPU use with 1 MPI tasks x 1 OpenMP threads
1000
Setting atom values ...
  1 settings made for z
Setting atom values ...
  1 settings made for y
Setting atom values ...
  1 settings made for z
Setting atom values ...
  1 settings made for y
Step Temp E_pair E_mol TotEng Press 
       7            0   -1453.3738            0   -1453.3738    150855.74 
       8            0   -1437.0713            0   -1437.0713    241520.82 
Loop time of 0.00262809 on 1 procs for 1 steps with 72 atoms

152.2% CPU use with 1 MPI tasks x 1 OpenMP threads
Setting atom values ...
  1 settings made for z
Setting atom values ...
  1 settings made for y
Setting atom values ...
  1 settings made for z
Setting atom values ...
  1 settings made for y
1000
Setting atom values ...
  1 settings made for z
Setting atom values ...
  1 settings made for y
Setting atom values ...
  1 settings made for z
Setting atom values ...
  1 settings made for y
Step Temp E_pair E_mol TotEng Press 
       8            0   -1437.0713            0   -1437.0713    241520.82 
       9            0    -1446.342            0    -1446.342    191783.97 
Loop time of 0.0026269 on 1 procs for 1 steps with 72 atoms

152.3% CPU use with 1 MPI tasks x 1 OpenMP threads
1000
Setting atom values ...
  1 settings made for z
Setting atom values ...
  1 settings made for y
Setting atom values ...
  1 settings made for z
Setting atom values ...
  1 settings made for y
Step Temp E_pair E_mol TotEng Press 
       9            0    -1446.342            0    -1446.342    191783.97 
      10            0   -1422.9583            0   -1422.9583    264142.51 
Loop time of 0.00263405 on 1 procs for 1 steps with 72 atoms

151.9% CPU use with 1 MPI tasks x 1 OpenMP threads
Setting atom values ...
  1 settings made for z
Setting atom values ...
  1 settings made for y
Setting atom values ...
  1 settings made for z
Setting atom values ...
  1 settings made for y
1000
Setting atom values ...
  1 settings made for z
Setting atom values ...
  1 settings made for y
Setting atom values ...
  1 settings made for z
Setting atom values ...
  1 settings made for y
Step Temp E_pair E_mol TotEng Press 
      10            0   -1422.9583            0   -1422.9583    264142.51 
      11            0   -1433.4539            0   -1433.4539    245449.48 
Loop time of 0.00263786 on 1 procs for 1 steps with 72 atoms

151.6% CPU use with 1 MPI tasks x 1 OpenMP threads
Setting atom values ...
  1 settings made for z
Setting atom values ...
  1 settings made for y
Setting atom values ...
  1 settings made for z
Setting atom values ...
  1 settings made for y
1000
Setting atom values ...
  1 settings made for z
Setting atom values ...
  1 settings made for y
Setting atom values ...
  1 settings made for z
Setting atom values ...
  1 settings made for y
Step Temp E_pair E_mol TotEng Press 
      11            0   -1433.4539            0   -1433.4539    245449.48 
      12            0   -1436.6202            0   -1436.6202    258668.02 
Loop time of 0.00194812 on 1 procs for 1 steps with 72 atoms

205.3% CPU use with 1 MPI tasks x 1 OpenMP threads
Setting atom values ...
  1 settings made for z
Setting atom values ...
  1 settings made for y
Setting atom values ...
  1 settings made for z
Setting atom values ...
  1 settings made for y
1000
Setting atom values ...
  1 settings made for z
Setting atom values ...
  1 settings made for y
Setting atom values ...
  1 settings made for z
Setting atom values ...
  1 settings made for y
Step Temp E_pair E_mol TotEng Press 
      12            0   -1436.6202            0   -1436.6202    258668.02 
      13            0   -1437.5549            0   -1437.5549    253790.36 
Loop time of 0.00195217 on 1 procs for 1 steps with 72 atoms

0.0% CPU use with 1 MPI tasks x 1 OpenMP threads
Setting atom values ...
  1 settings made for z
Setting atom values ...
  1 settings made for y
Setting atom values ...
  1 settings made for z
Setting atom values ...
  1 settings made for y
1000
Setting atom values ...
  1 settings made for z
Setting atom values ...
  1 settings made for y
Setting atom values ...
  1 settings made for z
Setting atom values ...
  1 settings made for y
Step Temp E_pair E_mol TotEng Press 
      13            0   -1437.5549            0   -1437.5549    253790.36 
      14            0   -1441.1504            0   -1441.1504    224835.33 
Loop time of 0.00194287 on 1 procs for 1 steps with 72 atoms

0.0% CPU use with 1 MPI tasks x 1 OpenMP threads
Setting atom values ...
  1 settings made for z
Setting atom values ...
  1 settings made for y
Setting atom values ...
  1 settings made for z
Setting atom values ...
  1 settings made for y
1000
Setting atom values ...
  1 settings made for z
Setting atom values ...
  1 settings made for y
Setting atom values ...
  1 settings made for z
Setting atom values ...
  1 settings made for y
Step Temp E_pair E_mol TotEng Press 
      14            0   -1441.1504            0   -1441.1504    224835.33 
      15            0   -1443.7931            0   -1443.7931    207836.07 
Loop time of 0.00196719 on 1 procs for 1 steps with 72 atoms

0.0% CPU use with 1 MPI tasks x 1 OpenMP threads
1000
Setting atom values ...
  1 settings made for z
Setting atom values ...
  1 settings made for y
Setting atom values ...
  1 settings made for z
Setting atom values ...
  1 settings made for y
Step Temp E_pair E_mol TotEng Press 
      15            0   -1443.7931            0   -1443.7931    207836.07 
      16            0   -1444.1328            0   -1444.1328    205091.69 
Loop time of 0.00194693 on 1 procs for 1 steps with 72 atoms

205.5% CPU use with 1 MPI tasks x 1 OpenMP threads
1000
Setting atom values ...
  1 settings made for z
Setting atom values ...
  1 settings made for y
Setting atom values ...
  1 settings made for z
Setting atom values ...
  1 settings made for y
Step Temp E_pair E_mol TotEng Press 
      16            0   -1444.1328            0   -1444.1328    205091.69 
      17            0   -1443.0824            0   -1443.0824    204800.91 
Loop time of 0.00194597 on 1 procs for 1 steps with 72 atoms

205.6% CPU use with 1 MPI tasks x 1 OpenMP threads
1000
Setting atom values ...
  1 settings made for z
Setting atom values ...
  1 settings made for y
Setting atom values ...
  1 settings made for z
Setting atom values ...
  1 settings made for y
Step Temp E_pair E_mol TotEng Press 
      17            0   -1443.0824            0   -1443.0824    204800.91 
      18            0    -1421.681            0    -1421.681    302544.52 
Loop time of 0.00266981 on 1 procs for 1 steps with 72 atoms

149.8% CPU use with 1 MPI tasks x 1 OpenMP threads
Setting atom values ...
  1 settings made for z
Setting atom values ...
  1 settings made for y
Setting atom values ...
  1 settings made for z
Setting atom values ...
  1 settings made for y
1000
Setting atom values ...
  1 settings made for z
Setting atom values ...
  1 settings made for y
Setting atom values ...
  1 settings made for z
Setting atom values ...
  1 settings made for y
Step Temp E_pair E_mol TotEng Press 
      18            0    -1421.681            0    -1421.681    302544.52 
      19            0   -1428.0829            0   -1428.0829    278995.33 
Loop time of 0.00264597 on 1 procs for 1 steps with 72 atoms

151.2% CPU use with 1 MPI tasks x 1 OpenMP threads
1000
Setting atom values ...
  1 settings made for z
Setting atom values ...
  1 settings made for y
Setting atom values ...
  1 settings made for z
Setting atom values ...
  1 settings made for y
Step Temp E_pair E_mol TotEng Press 
      19            0   -1428.0829            0   -1428.0829    278995.33 
      20            0    -1426.594            0    -1426.594    298881.64 
Loop time of 0.00196195 on 1 procs for 1 steps with 72 atoms

0.0% CPU use with 1 MPI tasks x 1 OpenMP threads
1000
Setting atom values ...
  1 settings made for z
Setting atom values ...
  1 settings made for y
Setting atom values ...
  1 settings made for z
Setting atom values ...
  1 settings made for y
Step Temp E_pair E_mol TotEng Press 
      20            0    -1426.594            0    -1426.594    298881.64 
      21            0   -1405.7989            0   -1405.7989    388591.87 
Loop time of 0.00194812 on 1 procs for 1 steps with 72 atoms

0.0% CPU use with 1 MPI tasks x 1 OpenMP threads
1000
Setting atom values ...
  1 settings made for z
Setting atom values ...
  1 settings made for y
Setting atom values ...
  1 settings made for z
Setting atom values ...
  1 settings made for y
Step Temp E_pair E_mol TotEng Press 
      21            0   -1405.7989            0   -1405.7989    388591.87 
      22            0   -1384.0379            0   -1384.0379    488604.81 
Loop time of 0.00194311 on 1 procs for 1 steps with 72 atoms

0.0% CPU use with 1 MPI tasks x 1 OpenMP threads
Setting atom values ...
  1 settings made for z
Setting atom values ...
  1 settings made for y
Setting atom values ...
  1 settings made for z
Setting atom values ...
  1 settings made for y
1000
Setting atom values ...
  1 settings made for z
Setting atom values ...
  1 settings made for y
Setting atom values ...
  1 settings made for z
Setting atom values ...
  1 settings made for y
Step Temp E_pair E_mol TotEng Press 
      22            0   -1384.0379            0   -1384.0379    488604.81 
      23            0   -1371.5631            0   -1371.5631    518537.96 
Loop time of 0.00193691 on 1 procs for 1 steps with 72 atoms

206.5% CPU use with 1 MPI tasks x 1 OpenMP threads
Setting atom values ...
  1 settings made for z
Setting atom values ...
  1 settings made for y
Setting atom values ...
  1 settings made for z
Setting atom values ...
  1 settings made for y
1000
Setting atom values ...
  1 settings made for z
Setting atom values ...
  1 settings made for y
Setting atom values ...
  1 settings made for z
Setting atom values ...
  1 settings made for y
Step Temp E_pair E_mol TotEng Press 
      23            0   -1371.5631            0   -1371.5631    518537.96 
      24            0   -1401.7437            0   -1401.7437    428438.51 
Loop time of 0.00193596 on 1 procs for 1 steps with 72 atoms

206.6% CPU use with 1 MPI tasks x 1 OpenMP threads
1000
Setting atom values ...
  1 settings made for z
Setting atom values ...
  1 settings made for y
Setting atom values ...
  1 settings made for z
Setting atom values ...
  1 settings made for y
Step Temp E_pair E_mol TotEng Press 
      24            0   -1401.7437            0   -1401.7437    428438.51 
      25            0   -1400.3253            0   -1400.3253    434190.45 
Loop time of 0.00194287 on 1 procs for 1 steps with 72 atoms

0.0% CPU use with 1 MPI tasks x 1 OpenMP threads
1000
Setting atom values ...
  1 settings made for z
Setting atom values ...
  1 settings made for y
Setting atom values ...
  1 settings made for z
Setting atom values ...
  1 settings made for y
Step Temp E_pair E_mol TotEng Press 
      25            0   -1400.3253            0   -1400.3253    434190.45 
      26            0   -1389.6446            0   -1389.6446     487525.9 
Loop time of 0.00194192 on 1 procs for 1 steps with 72 atoms

0.0% CPU use with 1 MPI tasks x 1 OpenMP threads
Setting atom values ...
  1 settings made for z
Setting atom values ...
  1 settings made for y
Setting atom values ...
  1 settings made for z
Setting atom values ...
  1 settings made for y
1000
Setting atom values ...
  1 settings made for z
Setting atom values ...
  1 settings made for y
Setting atom values ...
  1 settings made for z
Setting atom values ...
  1 settings made for y
Step Temp E_pair E_mol TotEng Press 
      26            0   -1389.6446            0   -1389.6446     487525.9 
      27            0   -1371.3785            0   -1371.3785    565746.71 
Loop time of 0.00192714 on 1 procs for 1 steps with 72 atoms

0.0% CPU use with 1 MPI tasks x 1 OpenMP threads
Setting atom values ...
  1 settings made for z
Setting atom values ...
  1 settings made for y
Setting atom values ...
  1 settings made for z
Setting atom values ...
  1 settings made for y
1000
Setting atom values ...
  1 settings made for z
Setting atom values ...
  1 settings made for y
Setting atom values ...
  1 settings made for z
Setting atom values ...
  1 settings made for y
Step Temp E_pair E_mol TotEng Press 
      27            0   -1371.3785            0   -1371.3785    565746.71 
      28            0   -1402.2626            0   -1402.2626    443875.36 
Loop time of 0.00192785 on 1 procs for 1 steps with 72 atoms

207.5% CPU use with 1 MPI tasks x 1 OpenMP threads
1000
Setting atom values ...
  1 settings made for z
Setting atom values ...
  1 settings made for y
Setting atom values ...
  1 settings made for z
Setting atom values ...
  1 settings made for y
Step Temp E_pair E_mol TotEng Press 
      28            0   -1402.2626            0   -1402.2626    443875.36 
      29            0   -1382.3468            0   -1382.3468    518969.61 
Loop time of 0.00192714 on 1 procs for 1 steps with 72 atoms

207.6% CPU use with 1 MPI tasks x 1 OpenMP threads
Setting atom values ...
  1 settings made for z
Setting atom values ...
  1 settings made for y
Setting atom values ...
  1 settings made for z
Setting atom values ...
  1 settings made for y
1000
Setting atom values ...
  1 settings made for z
Setting atom values ...
  1 settings made for y
Setting atom values ...
  1 settings made for z
Setting atom values ...
  1 settings made for y
Step Temp E_pair E_mol TotEng Press 
      29            0   -1382.3468            0   -1382.3468    518969.61 
      30            0   -1388.1352            0   -1388.1352       526862 
Loop time of 0.00194502 on 1 procs for 1 steps with 72 atoms

0.0% CPU use with 1 MPI tasks x 1 OpenMP threads
Setting atom values ...
  1 settings made for z
Setting atom values ...
  1 settings made for y
Setting atom values ...
  1 settings made for z
Setting atom values ...
  1 settings made for y
1000
Setting atom values ...
  1 settings made for z
Setting atom values ...
  1 settings made for y
Setting atom values ...
  1 settings made for z
Setting atom values ...
  1 settings made for y
Step Temp E_pair E_mol TotEng Press 
      30            0   -1388.1352            0   -1388.1352       526862 
      31            0    -1381.813            0    -1381.813    531527.59 
Loop time of 0.00264311 on 1 procs for 1 steps with 72 atoms

0.0% CPU use with 1 MPI tasks x 1 OpenMP threads
Setting atom values ...
  1 settings made for z
Setting atom values ...
  1 settings made for y
Setting atom values ...
  1 settings made for z
Setting atom values ...
  1 settings made for y
1000
Setting atom values ...
  1 settings made for z
Setting atom values ...
  1 settings made for y
Setting atom values ...
  1 settings made for z
Setting atom values ...
  1 settings made for y
Step Temp E_pair E_mol TotEng Press 
      31            0    -1381.813            0    -1381.813    531527.59 
      32            0   -1395.8668            0   -1395.8668    490350.86 
Loop time of 0.00261188 on 1 procs for 1 steps with 72 atoms

0.0% CPU use with 1 MPI tasks x 1 OpenMP threads
Setting atom values ...
  1 settings made for z
Setting atom values ...
  1 settings made for y
Setting atom values ...
  1 settings made for z
Setting atom values ...
  1 settings made for y
1000
Setting atom values ...
  1 settings made for z
Setting atom values ...
  1 settings made for y
Setting atom values ...
  1 settings made for z
Setting atom values ...
  1 settings made for y
Step Temp E_pair E_mol TotEng Press 
      32            0   -1395.8668            0   -1395.8668    490350.86 
      33            0   -1400.3222            0   -1400.3222    459154.01 
Loop time of 0.00193119 on 1 procs for 1 steps with 72 atoms

0.0% CPU use with 1 MPI tasks x 1 OpenMP threads
1000
Setting atom values ...
  1 settings made for z
Setting atom values ...
  1 settings made for y
Setting atom values ...
  1 settings made for z
Setting atom values ...
  1 settings made for y
Step Temp E_pair E_mol TotEng Press 
      33            0   -1400.3222            0   -1400.3222    459154.01 
      34            0   -1390.9035            0   -1390.9035    507405.82 
Loop time of 0.00260997 on 1 procs for 1 steps with 72 atoms

0.0% CPU use with 1 MPI tasks x 1 OpenMP threads
1000
Setting atom values ...
  1 settings made for z
Setting atom values ...
  1 settings made for y
Setting atom values ...
  1 settings made for z
Setting atom values ...
  1 settings made for y
Step Temp E_pair E_mol TotEng Press 
      34            0   -1390.9035            0   -1390.9035    507405.82 
      35            0     -1369.21            0     -1369.21    596711.83 
Loop time of 0.00191808 on 1 procs for 1 steps with 72 atoms

0.0% CPU use with 1 MPI tasks x 1 OpenMP threads
1000
Setting atom values ...
  1 settings made for z
Setting atom values ...
  1 settings made for y
Setting atom values ...
  1 settings made for z
Setting atom values ...
  1 settings made for y
Step Temp E_pair E_mol TotEng Press 
      35            0     -1369.21            0     -1369.21    596711.83 
      36            0   -1365.9456            0   -1365.9456    624917.91 
Loop time of 0.00196385 on 1 procs for 1 steps with 72 atoms

203.7% CPU use with 1 MPI tasks x 1 OpenMP threads
1000
Setting atom values ...
  1 settings made for z
Setting atom values ...
  1 settings made for y
Setting atom values ...
  1 settings made for z
Setting atom values ...
  1 settings made for y
Step Temp E_pair E_mol TotEng Press 
      36            0   -1365.9456            0   -1365.9456    624917.91 
      37            0   -1364.4258            0   -1364.4258    648154.77 
Loop time of 0.00193 on 1 procs for 1 steps with 72 atoms

207.3% CPU use with 1 MPI tasks x 1 OpenMP threads
1000
Setting atom values ...
  1 settings made for z
Setting atom values ...
  1 settings made for y
Setting atom values ...
  1 settings made for z
Setting atom values ...
  1 settings made for y
Step Temp E_pair E_mol TotEng Press 
      37            0   -1364.4258            0   -1364.4258    648154.77 
      38            0   -1367.1984            0   -1367.1984     639724.8 
Loop time of 0.00273108 on 1 procs for 1 steps with 72 atoms

146.5% CPU use with 1 MPI tasks x 1 OpenMP threads
1000
Setting atom values ...
  1 settings made for z
Setting atom values ...
  1 settings made for y
Setting atom values ...
  1 settings made for z
Setting atom values ...
  1 settings made for y
Step Temp E_pair E_mol TotEng Press 
      38            0   -1367.1984            0   -1367.1984     639724.8 
      39            0   -1318.0985            0   -1318.0985     778842.2 
Loop time of 0.00216603 on 1 procs for 1 steps with 72 atoms

184.7% CPU use with 1 MPI tasks x 1 OpenMP threads
Setting atom values ...
  1 settings made for z
Setting atom values ...
  1 settings made for y
Setting atom values ...
  1 settings made for z
Setting atom values ...
  1 settings made for y
1000
Setting atom values ...
  1 settings made for z
Setting atom values ...
  1 settings made for y
Setting atom values ...
  1 settings made for z
Setting atom values ...
  1 settings made for y
Step Temp E_pair E_mol TotEng Press 
      39            0   -1318.0985            0   -1318.0985     778842.2 
      40            0   -1302.5964            0   -1302.5964    828640.74 
Loop time of 0.00209403 on 1 procs for 1 steps with 72 atoms

0.0% CPU use with 1 MPI tasks x 1 OpenMP threads
Setting atom values ...
  1 settings made for z
Setting atom values ...
  1 settings made for y
Setting atom values ...
  1 settings made for z
Setting atom values ...
  1 settings made for y
1000
Setting atom values ...
  1 settings made for z
Setting atom values ...
  1 settings made for y
Setting atom values ...
  1 settings made for z
Setting atom values ...
  1 settings made for y
Step Temp E_pair E_mol TotEng Press 
      40            0   -1302.5964            0   -1302.5964    828640.74 
      41            0    -1389.263            0    -1389.263    534086.69 
Loop time of 0.00199008 on 1 procs for 1 steps with 72 atoms

0.0% CPU use with 1 MPI tasks x 1 OpenMP threads
1000
Setting atom values ...
  1 settings made for z
Setting atom values ...
  1 settings made for y
Setting atom values ...
  1 settings made for z
Setting atom values ...
  1 settings made for y
Step Temp E_pair E_mol TotEng Press 
      41            0    -1389.263            0    -1389.263    534086.69 
      42            0   -1313.6287            0   -1313.6287    748195.71 
Loop time of 0.00265098 on 1 procs for 1 steps with 72 atoms

0.0% CPU use with 1 MPI tasks x 1 OpenMP threads
Setting atom values ...
  1 settings made for z
Setting atom values ...
  1 settings made for y
Setting atom values ...
  1 settings made for z
Setting atom values ...
  1 settings made for y
1000
Setting atom values ...
  1 settings made for z
Setting atom values ...
  1 settings made for y
Setting atom values ...
  1 settings made for z
Setting atom values ...
  1 settings made for y
Step Temp E_pair E_mol TotEng Press 
      42            0   -1313.6287            0   -1313.6287    748195.71 
      43            0   -1381.4925            0   -1381.4925    576952.95 
Loop time of 0.00264406 on 1 procs for 1 steps with 72 atoms

0.0% CPU use with 1 MPI tasks x 1 OpenMP threads
Setting atom values ...
  1 settings made for z
Setting atom values ...
  1 settings made for y
Setting atom values ...
  1 settings made for z
Setting atom values ...
  1 settings made for y
1000
Setting atom values ...
  1 settings made for z
Setting atom values ...
  1 settings made for y
Setting atom values ...
  1 settings made for z
Setting atom values ...
  1 settings made for y
Step Temp E_pair E_mol TotEng Press 
      43            0   -1381.4925            0   -1381.4925    576952.95 
      44            0   -1381.8465            0   -1381.8465    571585.42 
Loop time of 0.00194812 on 1 procs for 1 steps with 72 atoms

205.3% CPU use with 1 MPI tasks x 1 OpenMP threads
Setting atom values ...
  1 settings made for z
Setting atom values ...
  1 settings made for y
Setting atom values ...
  1 settings made for z
Setting atom values ...
  1 settings made for y
1000
Setting atom values ...
  1 settings made for z
Setting atom values ...
  1 settings made for y
Setting atom values ...
  1 settings made for z
Setting atom values ...
  1 settings made for y
Step Temp E_pair E_mol TotEng Press 
      44            0   -1381.8465            0   -1381.8465    571585.42 
      45            0   -1382.7328            0   -1382.7328    545420.15 
Loop time of 0.00191784 on 1 procs for 1 steps with 72 atoms

208.6% CPU use with 1 MPI tasks x 1 OpenMP threads
1000
Setting atom values ...
  1 settings made for z
Setting atom values ...
  1 settings made for y
Setting atom values ...
  1 settings made for z
Setting atom values ...
  1 settings made for y
Step Temp E_pair E_mol TotEng Press 
      45            0   -1382.7328            0   -1382.7328    545420.15 
      46            0   -1315.7636            0   -1315.7636    753129.23 
Loop time of 0.00194812 on 1 procs for 1 steps with 72 atoms

205.3% CPU use with 1 MPI tasks x 1 OpenMP threads
Setting atom values ...
  1 settings made for z
Setting atom values ...
  1 settings made for y
Setting atom values ...
  1 settings made for z
Setting atom values ...
  1 settings made for y
1000
Setting atom values ...
  1 settings made for z
Setting atom values ...
  1 settings made for y
Setting atom values ...
  1 settings made for z
Setting atom values ...
  1 settings made for y
Step Temp E_pair E_mol TotEng Press 
      46            0   -1315.7636            0   -1315.7636    753129.23 
      47            0   -1247.0041            0   -1247.0041    901601.47 
Loop time of 0.00262499 on 1 procs for 1 steps with 72 atoms

152.4% CPU use with 1 MPI tasks x 1 OpenMP threads
Setting atom values ...
  1 settings made for z
Setting atom values ...
  1 settings made for y
Setting atom values ...
  1 settings made for z
Setting atom values ...
  1 settings made for y
1000
Setting atom values ...
  1 settings made for z
Setting atom values ...
  1 settings made for y
Setting atom values ...
  1 settings made for z
Setting atom values ...
  1 settings made for y
Step Temp E_pair E_mol TotEng Press 
      47            0   -1247.0041            0   -1247.0041    901601.47 
      48            0   -1368.9213            0   -1368.9213    600473.41 
Loop time of 0.00263095 on 1 procs for 1 steps with 72 atoms

152.0% CPU use with 1 MPI tasks x 1 OpenMP threads
Setting atom values ...
  1 settings made for z
Setting atom values ...
  1 settings made for y
Setting atom values ...
  1 settings made for z
Setting atom values ...
  1 settings made for y
1000
Setting atom values ...
  1 settings made for z
Setting atom values ...
  1 settings made for y
Setting atom values ...
  1 settings made for z
Setting atom values ...
  1 settings made for y
Step Temp E_pair E_mol TotEng Press 
      48            0   -1368.9213            0   -1368.9213    600473.41 
      49            0   -1378.1654            0   -1378.1654    571486.11 
Loop time of 0.00192094 on 1 procs for 1 steps with 72 atoms

0.0% CPU use with 1 MPI tasks x 1 OpenMP threads
1000
Setting atom values ...
  1 settings made for z
Setting atom values ...
  1 settings made for y
Setting atom values ...
  1 settings made for z
Setting atom values ...
  1 settings made for y
Step Temp E_pair E_mol TotEng Press 
      49            0   -1378.1654            0   -1378.1654    571486.11 
      50            0   -1346.6227            0   -1346.6227    713529.37 
Loop time of 0.00190711 on 1 procs for 1 steps with 72 atoms

0.0% CPU use with 1 MPI tasks x 1 OpenMP threads
Setting atom values ...
  1 settings made for z
Setting atom values ...
  1 settings made for y
Setting atom values ...
  1 settings made for z
Setting atom values ...
  1 settings made for y
1000
Setting atom values ...
  1 settings made for z
Setting atom values ...
  1 settings made for y
Setting atom values ...
  1 settings made for z
Setting atom values ...
  1 settings made for y
Step Temp E_pair E_mol TotEng Press 
      50            0   -1346.6227            0   -1346.6227    713529.37 
      51            0   -1376.6592            0   -1376.6592    581473.02 
Loop time of 0.00192094 on 1 procs for 1 steps with 72 atoms

208.2% CPU use with 1 MPI tasks x 1 OpenMP threads
1000
Setting atom values ...
  1 settings made for z
Setting atom values ...
  1 settings made for y
Setting atom values ...
  1 settings made for z
Setting atom values ...
  1 settings made for y
Step Temp E_pair E_mol TotEng Press 
      51            0   -1376.6592            0   -1376.6592    581473.02 
      52            0   -1373.4091            0   -1373.4091    593871.93 
Loop time of 0.0019269 on 1 procs for 1 steps with 72 atoms

207.6% CPU use with 1 MPI tasks x 1 OpenMP threads
1000
Setting atom values ...
  1 settings made for z
Setting atom values ...
  1 settings made for y
Setting atom values ...
  1 settings made for z
Setting atom values ...
  1 settings made for y
Step Temp E_pair E_mol TotEng Press 
      52            0   -1373.4091            0   -1373.4091    593871.93 
      53            0   -1325.6195            0   -1325.6195    794802.27 
Loop time of 0.00264192 on 1 procs for 1 steps with 72 atoms

151.4% CPU use with 1 MPI tasks x 1 OpenMP threads
Setting atom values ...
  1 settings made for z
Setting atom values ...
  1 settings made for y
Setting atom values ...
  1 settings made for z
Setting atom values ...
  1 settings made for y
1000
Setting atom values ...
  1 settings made for z
Setting atom values ...
  1 settings made for y
Setting atom values ...
  1 settings made for z
Setting atom values ...
  1 settings made for y
Step Temp E_pair E_mol TotEng Press 
      53            0   -1325.6195            0   -1325.6195    794802.27 
      54            0   -1356.4116            0   -1356.4116    685255.07 
Loop time of 0.00262213 on 1 procs for 1 steps with 72 atoms

152.5% CPU use with 1 MPI tasks x 1 OpenMP threads
Setting atom values ...
  1 settings made for z
Setting atom values ...
  1 settings made for y
Setting atom values ...
  1 settings made for z
Setting atom values ...
  1 settings made for y
1000
Setting atom values ...
  1 settings made for z
Setting atom values ...
  1 settings made for y
Setting atom values ...
  1 settings made for z
Setting atom values ...
  1 settings made for y
Step Temp E_pair E_mol TotEng Press 
      54            0   -1356.4116            0   -1356.4116    685255.07 
      55            0   -1371.8766            0   -1371.8766    612205.31 
Loop time of 0.00268102 on 1 procs for 1 steps with 72 atoms

149.2% CPU use with 1 MPI tasks x 1 OpenMP threads
1000
Setting atom values ...
  1 settings made for z
Setting atom values ...
  1 settings made for y
Setting atom values ...
  1 settings made for z
Setting atom values ...
  1 settings made for y
Step Temp E_pair E_mol TotEng Press 
      55            0   -1371.8766            0   -1371.8766    612205.31 
      56            0   -1170.0185            0   -1170.0185    995255.84 
Loop time of 0.00194097 on 1 procs for 1 steps with 72 atoms

0.0% CPU use with 1 MPI tasks x 1 OpenMP threads
Setting atom values ...
  1 settings made for z
Setting atom values ...
  1 settings made for y
Setting atom values ...
  1 settings made for z
Setting atom values ...
  1 settings made for y
1000
Setting atom values ...
  1 settings made for z
Setting atom values ...
  1 settings made for y
Setting atom values ...
  1 settings made for z
Setting atom values ...
  1 settings made for y
Step Temp E_pair E_mol TotEng Press 
      56            0   -1170.0185            0   -1170.0185    995255.84 
      57            0   -1356.2947            0   -1356.2947    656202.99 
Loop time of 0.00193715 on 1 procs for 1 steps with 72 atoms

0.0% CPU use with 1 MPI tasks x 1 OpenMP threads
Setting atom values ...
  1 settings made for z
Setting atom values ...
  1 settings made for y
Setting atom values ...
  1 settings made for z
Setting atom values ...
  1 settings made for y
1000
Setting atom values ...
  1 settings made for z
Setting atom values ...
  1 settings made for y
Setting atom values ...
  1 settings made for z
Setting atom values ...
  1 settings made for y
Step Temp E_pair E_mol TotEng Press 
      57            0   -1356.2947            0   -1356.2947    656202.99 
      58            0   -1371.0182            0   -1371.0182    622306.57 
Loop time of 0.00193095 on 1 procs for 1 steps with 72 atoms

0.0% CPU use with 1 MPI tasks x 1 OpenMP threads
1000
Setting atom values ...
  1 settings made for z
Setting atom values ...
  1 settings made for y
Setting atom values ...
  1 settings made for z
Setting atom values ...
  1 settings made for y
Step Temp E_pair E_mol TotEng Press 
      58            0   -1371.0182            0   -1371.0182    622306.57 
      59            0   -1292.7998            0   -1292.7998    900228.63 
Loop time of 0.00265408 on 1 procs for 1 steps with 72 atoms

150.7% CPU use with 1 MPI tasks x 1 OpenMP threads
Setting atom values ...
  1 settings made for z
Setting atom values ...
  1 settings made for y
Setting atom values ...
  1 settings made for z
Setting atom values ...
  1 settings made for y
1000
Setting atom values ...
  1 settings made for z
Setting atom values ...
  1 settings made for y
Setting atom values ...
  1 settings made for z
Setting atom values ...
  1 settings made for y
Step Temp E_pair E_mol TotEng Press 
      59            0   -1292.7998            0   -1292.7998    900228.63 
      60            0   -1262.9914            0   -1262.9914    913069.69 
Loop time of 0.00263286 on 1 procs for 1 steps with 72 atoms

151.9% CPU use with 1 MPI tasks x 1 OpenMP threads
Setting atom values ...
  1 settings made for z
Setting atom values ...
  1 settings made for y
Setting atom values ...
  1 settings made for z
Setting atom values ...
  1 settings made for y
1000
Setting atom values ...
  1 settings made for z
Setting atom values ...
  1 settings made for y
Setting atom values ...
  1 settings made for z
Setting atom values ...
  1 settings made for y
Step Temp E_pair E_mol TotEng Press 
      60            0   -1262.9914            0   -1262.9914    913069.69 
      61            0    -1364.097            0    -1364.097    659640.54 
Loop time of 0.00262713 on 1 procs for 1 steps with 72 atoms

152.3% CPU use with 1 MPI tasks x 1 OpenMP threads
1000
Setting atom values ...
  1 settings made for z
Setting atom values ...
  1 settings made for y
Setting atom values ...
  1 settings made for z
Setting atom values ...
  1 settings made for y
Step Temp E_pair E_mol TotEng Press 
      61            0    -1364.097            0    -1364.097    659640.54 
      62            0   -1358.3706            0   -1358.3706    680658.52 
Loop time of 0.00191689 on 1 procs for 1 steps with 72 atoms

208.7% CPU use with 1 MPI tasks x 1 OpenMP threads
1000
Setting atom values ...
  1 settings made for z
Setting atom values ...
  1 settings made for y
Setting atom values ...
  1 settings made for z
Setting atom values ...
  1 settings made for y
Step Temp E_pair E_mol TotEng Press 
      62            0   -1358.3706            0   -1358.3706    680658.52 
      63            0   -1336.9266            0   -1336.9266    768749.88 
Loop time of 0.00192904 on 1 procs for 1 steps with 72 atoms

207.4% CPU use with 1 MPI tasks x 1 OpenMP threads
1000
Setting atom values ...
  1 settings made for z
Setting atom values ...
  1 settings made for y
Setting atom values ...
  1 settings made for z
Setting atom values ...
  1 settings made for y
Step Temp E_pair E_mol TotEng Press 
      63            0   -1336.9266            0   -1336.9266    768749.88 
      64            0   -1337.2631            0   -1337.2631    778434.26 
Loop time of 0.00191998 on 1 procs for 1 steps with 72 atoms

0.0% CPU use with 1 MPI tasks x 1 OpenMP threads
1000
Setting atom values ...
  1 settings made for z
Setting atom values ...
  1 settings made for y
Setting atom values ...
  1 settings made for z
Setting atom values ...
  1 settings made for y
Step Temp E_pair E_mol TotEng Press 
      64            0   -1337.2631            0   -1337.2631    778434.26 
      65            0   -1328.6952            0   -1328.6952    790580.93 
Loop time of 0.00262713 on 1 procs for 1 steps with 72 atoms

0.0% CPU use with 1 MPI tasks x 1 OpenMP threads
1000
Setting atom values ...
  1 settings made for z
Setting atom values ...
  1 settings made for y
Setting atom values ...
  1 settings made for z
Setting atom values ...
  1 settings made for y
Step Temp E_pair E_mol TotEng Press 
      65            0   -1328.6952            0   -1328.6952    790580.93 
      66            0   -1309.5397            0   -1309.5397    870942.01 
Loop time of 0.00191998 on 1 procs for 1 steps with 72 atoms

0.0% CPU use with 1 MPI tasks x 1 OpenMP threads
Setting atom values ...
  1 settings made for z
Setting atom values ...
  1 settings made for y
Setting atom values ...
  1 settings made for z
Setting atom values ...
  1 settings made for y
1000
Setting atom values ...
  1 settings made for z
Setting atom values ...
  1 settings made for y
Setting atom values ...
  1 settings made for z
Setting atom values ...
  1 settings made for y
Step Temp E_pair E_mol TotEng Press 
      66            0   -1309.5397            0   -1309.5397    870942.01 
      67            0   -1329.2346            0   -1329.2346    798667.38 
Loop time of 0.00190902 on 1 procs for 1 steps with 72 atoms

209.5% CPU use with 1 MPI tasks x 1 OpenMP threads
1000
Setting atom values ...
  1 settings made for z
Setting atom values ...
  1 settings made for y
Setting atom values ...
  1 settings made for z
Setting atom values ...
  1 settings made for y
Step Temp E_pair E_mol TotEng Press 
      67            0   -1329.2346            0   -1329.2346    798667.38 
      68            0   -1334.6817            0   -1334.6817    775478.33 
Loop time of 0.00191092 on 1 procs for 1 steps with 72 atoms

209.3% CPU use with 1 MPI tasks x 1 OpenMP threads
1000
Setting atom values ...
  1 settings made for z
Setting atom values ...
  1 settings made for y
Setting atom values ...
  1 settings made for z
Setting atom values ...
  1 settings made for y
Step Temp E_pair E_mol TotEng Press 
      68            0   -1334.6817            0   -1334.6817    775478.33 
      69            0   -1339.1812            0   -1339.1812     763381.8 
Loop time of 0.00262308 on 1 procs for 1 steps with 72 atoms

152.5% CPU use with 1 MPI tasks x 1 OpenMP threads
1000
Setting atom values ...
  1 settings made for z
Setting atom values ...
  1 settings made for y
Setting atom values ...
  1 settings made for z
Setting atom values ...
  1 settings made for y
Step Temp E_pair E_mol TotEng Press 
      69            0   -1339.1812            0   -1339.1812     763381.8 
      70            0   -1340.6241            0   -1340.6241    782979.63 
Loop time of 0.00191212 on 1 procs for 1 steps with 72 atoms

209.2% CPU use with 1 MPI tasks x 1 OpenMP threads
1000
Setting atom values ...
  1 settings made for z
Setting atom values ...
  1 settings made for y
Setting atom values ...
  1 settings made for z
Setting atom values ...
  1 settings made for y
Step Temp E_pair E_mol TotEng Press 
      70            0   -1340.6241            0   -1340.6241    782979.63 
      71            0   -1290.7273            0   -1290.7273    953882.05 
Loop time of 0.00261307 on 1 procs for 1 steps with 72 atoms

0.0% CPU use with 1 MPI tasks x 1 OpenMP threads
Setting atom values ...
  1 settings made for z
Setting atom values ...
  1 settings made for y
Setting atom values ...
  1 settings made for z
Setting atom values ...
  1 settings made for y
1000
Setting atom values ...
  1 settings made for z
Setting atom values ...
  1 settings made for y
Setting atom values ...
  1 settings made for z
Setting atom values ...
  1 settings made for y
Step Temp E_pair E_mol TotEng Press 
      71            0   -1290.7273            0   -1290.7273    953882.05 
      72            0    -1343.825            0    -1343.825    760271.43 
Loop time of 0.00262594 on 1 procs for 1 steps with 72 atoms

0.0% CPU use with 1 MPI tasks x 1 OpenMP threads
1000
Setting atom values ...
  1 settings made for z
Setting atom values ...
  1 settings made for y
Setting atom values ...
  1 settings made for z
Setting atom values ...
  1 settings made for y
Step Temp E_pair E_mol TotEng Press 
      72            0    -1343.825            0    -1343.825    760271.43 
      73            0   -1314.9406            0   -1314.9406     881168.9 
Loop time of 0.00190592 on 1 procs for 1 steps with 72 atoms

0.0% CPU use with 1 MPI tasks x 1 OpenMP threads
Setting atom values ...
  1 settings made for z
Setting atom values ...
  1 settings made for y
Setting atom values ...
  1 settings made for z
Setting atom values ...
  1 settings made for y
1000
Setting atom values ...
  1 settings made for z
Setting atom values ...
  1 settings made for y
Setting atom values ...
  1 settings made for z
Setting atom values ...
  1 settings made for y
Step Temp E_pair E_mol TotEng Press 
      73            0   -1314.9406            0   -1314.9406     881168.9 
      74            0   -1287.1174            0   -1287.1174    910371.32 
Loop time of 0.0026381 on 1 procs for 1 steps with 72 atoms

0.0% CPU use with 1 MPI tasks x 1 OpenMP threads
Setting atom values ...
  1 settings made for z
Setting atom values ...
  1 settings made for y
Setting atom values ...
  1 settings made for z
Setting atom values ...
  1 settings made for y
1000
Setting atom values ...
  1 settings made for z
Setting atom values ...
  1 settings made for y
Setting atom values ...
  1 settings made for z
Setting atom values ...
  1 settings made for y
Step Temp E_pair E_mol TotEng Press 
      74            0   -1287.1174            0   -1287.1174    910371.32 
      75            0    -1330.415            0    -1330.415    809344.95 
Loop time of 0.00261712 on 1 procs for 1 steps with 72 atoms

0.0% CPU use with 1 MPI tasks x 1 OpenMP threads
1000
Setting atom values ...
  1 settings made for z
Setting atom values ...
  1 settings made for y
Setting atom values ...
  1 settings made for z
Setting atom values ...
  1 settings made for y
Step Temp E_pair E_mol TotEng Press 
      75            0    -1330.415            0    -1330.415    809344.95 
      76            0   -1304.8304            0   -1304.8304    893663.23 
Loop time of 0.0026288 on 1 procs for 1 steps with 72 atoms

0.0% CPU use with 1 MPI tasks x 1 OpenMP threads
Setting atom values ...
  1 settings made for z
Setting atom values ...
  1 settings made for y
Setting atom values ...
  1 settings made for z
Setting atom values ...
  1 settings made for y
1000
Setting atom values ...
  1 settings made for z
Setting atom values ...
  1 settings made for y
Setting atom values ...
  1 settings made for z
Setting atom values ...
  1 settings made for y
Step Temp E_pair E_mol TotEng Press 
      76            0   -1304.8304            0   -1304.8304    893663.23 
      77            0   -1279.5277            0   -1279.5277    948699.82 
Loop time of 0.00190997 on 1 procs for 1 steps with 72 atoms

209.4% CPU use with 1 MPI tasks x 1 OpenMP threads
Setting atom values ...
  1 settings made for z
Setting atom values ...
  1 settings made for y
Setting atom values ...
  1 settings made for z
Setting atom values ...
  1 settings made for y
1000
Setting atom values ...
  1 settings made for z
Setting atom values ...
  1 settings made for y
Setting atom values ...
  1 settings made for z
Setting atom values ...
  1 settings made for y
Step Temp E_pair E_mol TotEng Press 
      77            0   -1279.5277            0   -1279.5277    948699.82 
      78            0   -1269.3242            0   -1269.3242    1002565.8 
Loop time of 0.00261807 on 1 procs for 1 steps with 72 atoms

152.8% CPU use with 1 MPI tasks x 1 OpenMP threads
Setting atom values ...
  1 settings made for z
Setting atom values ...
  1 settings made for y
Setting atom values ...
  1 settings made for z
Setting atom values ...
  1 settings made for y
1000
Setting atom values ...
  1 settings made for z
Setting atom values ...
  1 settings made for y
Setting atom values ...
  1 settings made for z
Setting atom values ...
  1 settings made for y
Step Temp E_pair E_mol TotEng Press 
      78            0   -1269.3242            0   -1269.3242    1002565.8 
      79            0   -1328.2658            0   -1328.2658     811051.6 
Loop time of 0.00261712 on 1 procs for 1 steps with 72 atoms

152.8% CPU use with 1 MPI tasks x 1 OpenMP threads
1000
Setting atom values ...
  1 settings made for z
Setting atom values ...
  1 settings made for y
Setting atom values ...
  1 settings made for z
Setting atom values ...
  1 settings made for y
Step Temp E_pair E_mol TotEng Press 
      79            0   -1328.2658            0   -1328.2658     811051.6 
      80            0   -1327.6805            0   -1327.6805    812526.14 
Loop time of 0.00192118 on 1 procs for 1 steps with 72 atoms

208.2% CPU use with 1 MPI tasks x 1 OpenMP threads
Setting atom values ...
  1 settings made for z
Setting atom values ...
  1 settings made for y
Setting atom values ...
  1 settings made for z
Setting atom values ...
  1 settings made for y
1000
Setting atom values ...
  1 settings made for z
Setting atom values ...
  1 settings made for y
Setting atom values ...
  1 settings made for z
Setting atom values ...
  1 settings made for y
Step Temp E_pair E_mol TotEng Press 
      80            0   -1327.6805            0   -1327.6805    812526.14 
      81            0   -1227.3705            0   -1227.3705    1080960.3 
Loop time of 0.00263286 on 1 procs for 1 steps with 72 atoms

151.9% CPU use with 1 MPI tasks x 1 OpenMP threads
Setting atom values ...
  1 settings made for z
Setting atom values ...
  1 settings made for y
Setting atom values ...
  1 settings made for z
Setting atom values ...
  1 settings made for y
1000
Setting atom values ...
  1 settings made for z
Setting atom values ...
  1 settings made for y
Setting atom values ...
  1 settings made for z
Setting atom values ...
  1 settings made for y
Step Temp E_pair E_mol TotEng Press 
      81            0   -1227.3705            0   -1227.3705    1080960.3 
      82            0   -1304.3145            0   -1304.3145    918992.95 
Loop time of 0.00261712 on 1 procs for 1 steps with 72 atoms

152.8% CPU use with 1 MPI tasks x 1 OpenMP threads
Setting atom values ...
  1 settings made for z
Setting atom values ...
  1 settings made for y
Setting atom values ...
  1 settings made for z
Setting atom values ...
  1 settings made for y
1000
Setting atom values ...
  1 settings made for z
Setting atom values ...
  1 settings made for y
Setting atom values ...
  1 settings made for z
Setting atom values ...
  1 settings made for y
Step Temp E_pair E_mol TotEng Press 
      82            0   -1304.3145            0   -1304.3145    918992.95 
      83            0   -1322.7577            0   -1322.7577    838004.89 
Loop time of 0.00262308 on 1 procs for 1 steps with 72 atoms

152.5% CPU use with 1 MPI tasks x 1 OpenMP threads
Setting atom values ...
  1 settings made for z
Setting atom values ...
  1 settings made for y
Setting atom values ...
  1 settings made for z
Setting atom values ...
  1 settings made for y
1000
Setting atom values ...
  1 settings made for z
Setting atom values ...
  1 settings made for y
Setting atom values ...
  1 settings made for z
Setting atom values ...
  1 settings made for y
Step Temp E_pair E_mol TotEng Press 
      83            0   -1322.7577            0   -1322.7577    838004.89 
      84            0   -1327.2555            0   -1327.2555    806689.11 
Loop time of 0.00191116 on 1 procs for 1 steps with 72 atoms

0.0% CPU use with 1 MPI tasks x 1 OpenMP threads
1000
Setting atom values ...
  1 settings made for z
Setting atom values ...
  1 settings made for y
Setting atom values ...
  1 settings made for z
Setting atom values ...
  1 settings made for y
Step Temp E_pair E_mol TotEng Press 
      84            0   -1327.2555            0   -1327.2555    806689.11 
      85            0   -946.20087            0   -946.20087    1228509.8 
Loop time of 0.00191498 on 1 procs for 1 steps with 72 atoms

0.0% CPU use with 1 MPI tasks x 1 OpenMP threads
Setting atom values ...
  1 settings made for z
Setting atom values ...
  1 settings made for y
Setting atom values ...
  1 settings made for z
Setting atom values ...
  1 settings made for y
1000
Setting atom values ...
  1 settings made for z
Setting atom values ...
  1 settings made for y
Setting atom values ...
  1 settings made for z
Setting atom values ...
  1 settings made for y
Step Temp E_pair E_mol TotEng Press 
      85            0   -946.20087            0   -946.20087    1228509.8 
      86            0   -897.58888            0   -897.58888    1301557.1 
Loop time of 0.00261378 on 1 procs for 1 steps with 72 atoms

0.0% CPU use with 1 MPI tasks x 1 OpenMP threads
Setting atom values ...
  1 settings made for z
Setting atom values ...
  1 settings made for y
Setting atom values ...
  1 settings made for z
Setting atom values ...
  1 settings made for y
1000
Setting atom values ...
  1 settings made for z
Setting atom values ...
  1 settings made for y
Setting atom values ...
  1 settings made for z
Setting atom values ...
  1 settings made for y
Step Temp E_pair E_mol TotEng Press 
      86            0   -897.58888            0   -897.58888    1301557.1 
      87            0   -1328.4754            0   -1328.4754       794329 
Loop time of 0.00261712 on 1 procs for 1 steps with 72 atoms

0.0% CPU use with 1 MPI tasks x 1 OpenMP threads
1000
Setting atom values ...
  1 settings made for z
Setting atom values ...
  1 settings made for y
Setting atom values ...
  1 settings made for z
Setting atom values ...
  1 settings made for y
Step Temp E_pair E_mol TotEng Press 
      87            0   -1328.4754            0   -1328.4754       794329 
      88            0   -1311.2845            0   -1311.2845    855869.82 
Loop time of 0.0019021 on 1 procs for 1 steps with 72 atoms

210.3% CPU use with 1 MPI tasks x 1 OpenMP threads
1000
Setting atom values ...
  1 settings made for z
Setting atom values ...
  1 settings made for y
Setting atom values ...
  1 settings made for z
Setting atom values ...
  1 settings made for y
Step Temp E_pair E_mol TotEng Press 
      88            0   -1311.2845            0   -1311.2845    855869.82 
      89            0   -1297.4224            0   -1297.4224    912052.08 
Loop time of 0.00190902 on 1 procs for 1 steps with 72 atoms

209.5% CPU use with 1 MPI tasks x 1 OpenMP threads
1000
Setting atom values ...
  1 settings made for z
Setting atom values ...
  1 settings made for y
Setting atom values ...
  1 settings made for z
Setting atom values ...
  1 settings made for y
Step Temp E_pair E_mol TotEng Press 
      89            0   -1297.4224            0   -1297.4224    912052.08 
      90            0   -1256.6176            0   -1256.6176      1016495 
Loop time of 0.00262809 on 1 procs for 1 steps with 72 atoms

152.2% CPU use with 1 MPI tasks x 1 OpenMP threads
1000
Setting atom values ...
  1 settings made for z
Setting atom values ...
  1 settings made for y
Setting atom values ...
  1 settings made for z
Setting atom values ...
  1 settings made for y
Step Temp E_pair E_mol TotEng Press 
      90            0   -1256.6176            0   -1256.6176      1016495 
      91            0   -1216.3584            0   -1216.3584    1161861.8 
Loop time of 0.00190401 on 1 procs for 1 steps with 72 atoms

210.1% CPU use with 1 MPI tasks x 1 OpenMP threads
Setting atom values ...
  1 settings made for z
Setting atom values ...
  1 settings made for y
Setting atom values ...
  1 settings made for z
Setting atom values ...
  1 settings made for y
1000
Setting atom values ...
  1 settings made for z
Setting atom values ...
  1 settings made for y
Setting atom values ...
  1 settings made for z
Setting atom values ...
  1 settings made for y
Step Temp E_pair E_mol TotEng Press 
      91            0   -1216.3584            0   -1216.3584    1161861.8 
      92            0   -1263.7395            0   -1263.7395    981742.89 
Loop time of 0.00191307 on 1 procs for 1 steps with 72 atoms

0.0% CPU use with 1 MPI tasks x 1 OpenMP threads
1000
Setting atom values ...
  1 settings made for z
Setting atom values ...
  1 settings made for y
Setting atom values ...
  1 settings made for z
Setting atom values ...
  1 settings made for y
Step Temp E_pair E_mol TotEng Press 
      92            0   -1263.7395            0   -1263.7395    981742.89 
      93            0   -1214.2029            0   -1214.2029    1161155.3 
Loop time of 0.00262499 on 1 procs for 1 steps with 72 atoms

0.0% CPU use with 1 MPI tasks x 1 OpenMP threads
Setting atom values ...
  1 settings made for z
Setting atom values ...
  1 settings made for y
Setting atom values ...
  1 settings made for z
Setting atom values ...
  1 settings made for y
1000
Setting atom values ...
  1 settings made for z
Setting atom values ...
  1 settings made for y
Setting atom values ...
  1 settings made for z
Setting atom values ...
  1 settings made for y
Step Temp E_pair E_mol TotEng Press 
      93            0   -1214.2029            0   -1214.2029    1161155.3 
      94            0   -1242.9886            0   -1242.9886    1058762.2 
Loop time of 0.00261998 on 1 procs for 1 steps with 72 atoms

0.0% CPU use with 1 MPI tasks x 1 OpenMP threads
Setting atom values ...
  1 settings made for z
Setting atom values ...
  1 settings made for y
Setting atom values ...
  1 settings made for z
Setting atom values ...
  1 settings made for y
1000
Setting atom values ...
  1 settings made for z
Setting atom values ...
  1 settings made for y
Setting atom values ...
  1 settings made for z
Setting atom values ...
  1 settings made for y
Step Temp E_pair E_mol TotEng Press 
      94            0   -1242.9886            0   -1242.9886    1058762.2 
      95            0   -1247.4475            0   -1247.4475      1024231 
Loop time of 0.00189805 on 1 procs for 1 steps with 72 atoms

0.0% CPU use with 1 MPI tasks x 1 OpenMP threads
Setting atom values ...
  1 settings made for z
Setting atom values ...
  1 settings made for y
Setting atom values ...
  1 settings made for z
Setting atom values ...
  1 settings made for y
1000
Setting atom values ...
  1 settings made for z
Setting atom values ...
  1 settings made for y
Setting atom values ...
  1 settings made for z
Setting atom values ...
  1 settings made for y
Step Temp E_pair E_mol TotEng Press 
      95            0   -1247.4475            0   -1247.4475      1024231 
      96            0   -1085.1654            0   -1085.1654    1350389.3 
Loop time of 0.00263309 on 1 procs for 1 steps with 72 atoms

151.9% CPU use with 1 MPI tasks x 1 OpenMP threads
Setting atom values ...
  1 settings made for z
Setting atom values ...
  1 settings made for y
Setting atom values ...
  1 settings made for z
Setting atom values ...
  1 settings made for y
1000
Setting atom values ...
  1 settings made for z
Setting atom values ...
  1 settings made for y
Setting atom values ...
  1 settings made for z
Setting atom values ...
  1 settings made for y
Step Temp E_pair E_mol TotEng Press 
      96            0   -1085.1654            0   -1085.1654    1350389.3 
      97            0    -1261.356            0    -1261.356    992063.83 
Loop time of 0.00261784 on 1 procs for 1 steps with 72 atoms

152.8% CPU use with 1 MPI tasks x 1 OpenMP threads
1000
Setting atom values ...
  1 settings made for z
Setting atom values ...
  1 settings made for y
Setting atom values ...
  1 settings made for z
Setting atom values ...
  1 settings made for y
Step Temp E_pair E_mol TotEng Press 
      97            0    -1261.356            0    -1261.356    992063.83 
      98            0   -1263.5272            0   -1263.5272    957096.38 
Loop time of 0.00190592 on 1 procs for 1 steps with 72 atoms

209.9% CPU use with 1 MPI tasks x 1 OpenMP threads
1000
Setting atom values ...
  1 settings made for z
Setting atom values ...
  1 settings made for y
Setting atom values ...
  1 settings made for z
Setting atom values ...
  1 settings made for y
Step Temp E_pair E_mol TotEng Press 
      98            0   -1263.5272            0   -1263.5272    957096.38 
      99            0   -1195.1056            0   -1195.1056    1158406.3 
Loop time of 0.0019021 on 1 procs for 1 steps with 72 atoms

210.3% CPU use with 1 MPI tasks x 1 OpenMP threads
Setting atom values ...
  1 settings made for z
Setting atom values ...
  1 settings made for y
Setting atom values ...
  1 settings made for z
Setting atom values ...
  1 settings made for y
1000
Setting atom values ...
  1 settings made for z
Setting atom values ...
  1 settings made for y
Setting atom values ...
  1 settings made for z
Setting atom values ...
  1 settings made for y
Step Temp E_pair E_mol TotEng Press 
      99            0   -1195.1056            0   -1195.1056    1158406.3 
     100            0    -1261.962            0    -1261.962    937381.72 
Loop time of 0.00191522 on 1 procs for 1 steps with 72 atoms

0.0% CPU use with 1 MPI tasks x 1 OpenMP threads
1000
Setting atom values ...
  1 settings made for z
Setting atom values ...
  1 settings made for y
Setting atom values ...
  1 settings made for z
Setting atom values ...
  1 settings made for y
Step Temp E_pair E_mol TotEng Press 
     100            0    -1261.962            0    -1261.962    937381.72 
     101            0   -1213.3563            0   -1213.3563    1115542.3 
Loop time of 0.002635 on 1 procs for 1 steps with 72 atoms

0.0% CPU use with 1 MPI tasks x 1 OpenMP threads
Setting atom values ...
  1 settings made for z
Setting atom values ...
  1 settings made for y
Setting atom values ...
  1 settings made for z
Setting atom values ...
  1 settings made for y
1000
Setting atom values ...
  1 settings made for z
Setting atom values ...
  1 settings made for y
Setting atom values ...
  1 settings made for z
Setting atom values ...
  1 settings made for y
Step Temp E_pair E_mol TotEng Press 
     101            0   -1213.3563            0   -1213.3563    1115542.3 
     102            0   -1256.8548            0   -1256.8548    957111.56 
Loop time of 0.00263691 on 1 procs for 1 steps with 72 atoms

0.0% CPU use with 1 MPI tasks x 1 OpenMP threads
Setting atom values ...
  1 settings made for z
Setting atom values ...
  1 settings made for y
Setting atom values ...
  1 settings made for z
Setting atom values ...
  1 settings made for y
1000
Setting atom values ...
  1 settings made for z
Setting atom values ...
  1 settings made for y
Setting atom values ...
  1 settings made for z
Setting atom values ...
  1 settings made for y
Step Temp E_pair E_mol TotEng Press 
     102            0   -1256.8548            0   -1256.8548    957111.56 
     103            0   -1170.9092            0   -1170.9092    1179766.1 
Loop time of 0.00262713 on 1 procs for 1 steps with 72 atoms

0.0% CPU use with 1 MPI tasks x 1 OpenMP threads
Setting atom values ...
  1 settings made for z
Setting atom values ...
  1 settings made for y
Setting atom values ...
  1 settings made for z
Setting atom values ...
  1 settings made for y
1000
Setting atom values ...
  1 settings made for z
Setting atom values ...
  1 settings made for y
Setting atom values ...
  1 settings made for z
Setting atom values ...
  1 settings made for y
Step Temp E_pair E_mol TotEng Press 
     103            0   -1170.9092            0   -1170.9092    1179766.1 
     104            0   -1246.9644            0   -1246.9644    972831.93 
Loop time of 0.0026679 on 1 procs for 1 steps with 72 atoms

0.0% CPU use with 1 MPI tasks x 1 OpenMP threads
Setting atom values ...
  1 settings made for z
Setting atom values ...
  1 settings made for y
Setting atom values ...
  1 settings made for z
Setting atom values ...
  1 settings made for y
1000
Setting atom values ...
  1 settings made for z
Setting atom values ...
  1 settings made for y
Setting atom values ...
  1 settings made for z
Setting atom values ...
  1 settings made for y
Step Temp E_pair E_mol TotEng Press 
     104            0   -1246.9644            0   -1246.9644    972831.93 
     105            0   -1248.2618            0   -1248.2618    1023178.8 
Loop time of 0.00194693 on 1 procs for 1 steps with 72 atoms

0.0% CPU use with 1 MPI tasks x 1 OpenMP threads
1000
Setting atom values ...
  1 settings made for z
Setting atom values ...
  1 settings made for y
Setting atom values ...
  1 settings made for z
Setting atom values ...
  1 settings made for y
Step Temp E_pair E_mol TotEng Press 
     105            0   -1248.2618            0   -1248.2618    1023178.8 
     106            0   -1249.0261            0   -1249.0261    1003000.8 
Loop time of 0.00191689 on 1 procs for 1 steps with 72 atoms

208.7% CPU use with 1 MPI tasks x 1 OpenMP threads
1000
Setting atom values ...
  1 settings made for z
Setting atom values ...
  1 settings made for y
Setting atom values ...
  1 settings made for z
Setting atom values ...
  1 settings made for y
Step Temp E_pair E_mol TotEng Press 
     106            0   -1249.0261            0   -1249.0261    1003000.8 
     107            0   -1237.7356            0   -1237.7356    1067258.7 
Loop time of 0.00190902 on 1 procs for 1 steps with 72 atoms

209.5% CPU use with 1 MPI tasks x 1 OpenMP threads
1000
Setting atom values ...
  1 settings made for z
Setting atom values ...
  1 settings made for y
Setting atom values ...
  1 settings made for z
Setting atom values ...
  1 settings made for y
Step Temp E_pair E_mol TotEng Press 
     107            0   -1237.7356            0   -1237.7356    1067258.7 
     108            0   -1216.5946            0   -1216.5946    1178995.9 
Loop time of 0.00191903 on 1 procs for 1 steps with 72 atoms

0.0% CPU use with 1 MPI tasks x 1 OpenMP threads
Setting atom values ...
  1 settings made for z
Setting atom values ...
  1 settings made for y
Setting atom values ...
  1 settings made for z
Setting atom values ...
  1 settings made for y
1000
Setting atom values ...
  1 settings made for z
Setting atom values ...
  1 settings made for y
Setting atom values ...
  1 settings made for z
Setting atom values ...
  1 settings made for y
Step Temp E_pair E_mol TotEng Press 
     108            0   -1216.5946            0   -1216.5946    1178995.9 
     109            0   -1087.0267            0   -1087.0267    1367258.9 
Loop time of 0.00193 on 1 procs for 1 steps with 72 atoms

0.0% CPU use with 1 MPI tasks x 1 OpenMP threads
Setting atom values ...
  1 settings made for z
Setting atom values ...
  1 settings made for y
Setting atom values ...
  1 settings made for z
Setting atom values ...
  1 settings made for y
1000
Setting atom values ...
  1 settings made for z
Setting atom values ...
  1 settings made for y
Setting atom values ...
  1 settings made for z
Setting atom values ...
  1 settings made for y
Step Temp E_pair E_mol TotEng Press 
     109            0   -1087.0267            0   -1087.0267    1367258.9 
     110            0   -1205.0116            0   -1205.0116    1197517.2 
Loop time of 0.00192499 on 1 procs for 1 steps with 72 atoms

0.0% CPU use with 1 MPI tasks x 1 OpenMP threads
Setting atom values ...
  1 settings made for z
Setting atom values ...
  1 settings made for y
Setting atom values ...
  1 settings made for z
Setting atom values ...
  1 settings made for y
1000
Setting atom values ...
  1 settings made for z
Setting atom values ...
  1 settings made for y
Setting atom values ...
  1 settings made for z
Setting atom values ...
  1 settings made for y
Step Temp E_pair E_mol TotEng Press 
     110            0   -1205.0116            0   -1205.0116    1197517.2 
     111            0   -1199.5024            0   -1199.5024    1211987.8 
Loop time of 0.00264001 on 1 procs for 1 steps with 72 atoms

0.0% CPU use with 1 MPI tasks x 1 OpenMP threads
Setting atom values ...
  1 settings made for z
Setting atom values ...
  1 settings made for y
Setting atom values ...
  1 settings made for z
Setting atom values ...
  1 settings made for y
1000
Setting atom values ...
  1 settings made for z
Setting atom values ...
  1 settings made for y
Setting atom values ...
  1 settings made for z
Setting atom values ...
  1 settings made for y
Step Temp E_pair E_mol TotEng Press 
     111            0   -1199.5024            0   -1199.5024    1211987.8 
     112            0   -1241.0466            0   -1241.0466    1048394.5 
Loop time of 0.00261402 on 1 procs for 1 steps with 72 atoms

153.0% CPU use with 1 MPI tasks x 1 OpenMP threads
1000
Setting atom values ...
  1 settings made for z
Setting atom values ...
  1 settings made for y
Setting atom values ...
  1 settings made for z
Setting atom values ...
  1 settings made for y
Step Temp E_pair E_mol TotEng Press 
     112            0   -1241.0466            0   -1241.0466    1048394.5 
     113            0   -1154.2712            0   -1154.2712    1263181.7 
Loop time of 0.00190592 on 1 procs for 1 steps with 72 atoms

209.9% CPU use with 1 MPI tasks x 1 OpenMP threads
Setting atom values ...
  1 settings made for z
Setting atom values ...
  1 settings made for y
Setting atom values ...
  1 settings made for z
Setting atom values ...
  1 settings made for y
1000
Setting atom values ...
  1 settings made for z
Setting atom values ...
  1 settings made for y
Setting atom values ...
  1 settings made for z
Setting atom values ...
  1 settings made for y
Step Temp E_pair E_mol TotEng Press 
     113            0   -1154.2712            0   -1154.2712    1263181.7 
     114            0    -1248.436            0    -1248.436    1003242.1 
Loop time of 0.0019381 on 1 procs for 1 steps with 72 atoms

206.4% CPU use with 1 MPI tasks x 1 OpenMP threads
1000
Setting atom values ...
  1 settings made for z
Setting atom values ...
  1 settings made for y
Setting atom values ...
  1 settings made for z
Setting atom values ...
  1 settings made for y
Step Temp E_pair E_mol TotEng Press 
     114            0    -1248.436            0    -1248.436    1003242.1 
     115            0   -1258.2503            0   -1258.2503    896051.22 
Loop time of 0.00191903 on 1 procs for 1 steps with 72 atoms

0.0% CPU use with 1 MPI tasks x 1 OpenMP threads
1000
Setting atom values ...
  1 settings made for z
Setting atom values ...
  1 settings made for y
Setting atom values ...
  1 settings made for z
Setting atom values ...
  1 settings made for y
Step Temp E_pair E_mol TotEng Press 
     115            0   -1258.2503            0   -1258.2503    896051.22 
     116            0   -1242.9239            0   -1242.9239     962638.3 
Loop time of 0.00192189 on 1 procs for 1 steps with 72 atoms

0.0% CPU use with 1 MPI tasks x 1 OpenMP threads
1000
Setting atom values ...
  1 settings made for z
Setting atom values ...
  1 settings made for y
Setting atom values ...
  1 settings made for z
Setting atom values ...
  1 settings made for y
Step Temp E_pair E_mol TotEng Press 
     116            0   -1242.9239            0   -1242.9239     962638.3 
     117            0   -1239.1269            0   -1239.1269    1000086.9 
Loop time of 0.00190306 on 1 procs for 1 steps with 72 atoms

0.0% CPU use with 1 MPI tasks x 1 OpenMP threads
1000
Setting atom values ...
  1 settings made for z
Setting atom values ...
  1 settings made for y
Setting atom values ...
  1 settings made for z
Setting atom values ...
  1 settings made for y
Step Temp E_pair E_mol TotEng Press 
     117            0   -1239.1269            0   -1239.1269    1000086.9 
     118            0   -1206.8228            0   -1206.8228    1097260.2 
Loop time of 0.00190401 on 1 procs for 1 steps with 72 atoms

210.1% CPU use with 1 MPI tasks x 1 OpenMP threads
Setting atom values ...
  1 settings made for z
Setting atom values ...
  1 settings made for y
Setting atom values ...
  1 settings made for z
Setting atom values ...
  1 settings made for y
1000
Setting atom values ...
  1 settings made for z
Setting atom values ...
  1 settings made for y
Setting atom values ...
  1 settings made for z
Setting atom values ...
  1 settings made for y
Step Temp E_pair E_mol TotEng Press 
     118            0   -1206.8228            0   -1206.8228    1097260.2 
     119            0   -1239.8358            0   -1239.8358    1008300.9 
Loop time of 0.00190592 on 1 procs for 1 steps with 72 atoms

209.9% CPU use with 1 MPI tasks x 1 OpenMP threads
1000
Setting atom values ...
  1 settings made for z
Setting atom values ...
  1 settings made for y
Setting atom values ...
  1 settings made for z
Setting atom values ...
  1 settings made for y
Step Temp E_pair E_mol TotEng Press 
     119            0   -1239.8358            0   -1239.8358    1008300.9 
     120            0    -1222.634            0    -1222.634    1100228.8 
Loop time of 0.00264001 on 1 procs for 1 steps with 72 atoms

151.5% CPU use with 1 MPI tasks x 1 OpenMP threads
1000
Setting atom values ...
  1 settings made for z
Setting atom values ...
  1 settings made for y
Setting atom values ...
  1 settings made for z
Setting atom values ...
  1 settings made for y
Step Temp E_pair E_mol TotEng Press 
     120            0    -1222.634            0    -1222.634    1100228.8 
     121            0   -1168.4392            0   -1168.4392      1247987 
Loop time of 0.00192904 on 1 procs for 1 steps with 72 atoms

0.0% CPU use with 1 MPI tasks x 1 OpenMP threads
Setting atom values ...
  1 settings made for z
Setting atom values ...
  1 settings made for y
Setting atom values ...
  1 settings made for z
Setting atom values ...
  1 settings made for y
1000
Setting atom values ...
  1 settings made for z
Setting atom values ...
  1 settings made for y
Setting atom values ...
  1 settings made for z
Setting atom values ...
  1 settings made for y
Step Temp E_pair E_mol TotEng Press 
     121            0   -1168.4392            0   -1168.4392      1247987 
     122            0   -1193.3687            0   -1193.3687    1225333.2 
Loop time of 0.00190878 on 1 procs for 1 steps with 72 atoms

0.0% CPU use with 1 MPI tasks x 1 OpenMP threads
Setting atom values ...
  1 settings made for z
Setting atom values ...
  1 settings made for y
Setting atom values ...
  1 settings made for z
Setting atom values ...
  1 settings made for y
1000
Setting atom values ...
  1 settings made for z
Setting atom values ...
  1 settings made for y
Setting atom values ...
  1 settings made for z
Setting atom values ...
  1 settings made for y
Step Temp E_pair E_mol TotEng Press 
     122            0   -1193.3687            0   -1193.3687    1225333.2 
     123            0   -1241.4766            0   -1241.4766    1027937.5 
Loop time of 0.0018971 on 1 procs for 1 steps with 72 atoms

210.8% CPU use with 1 MPI tasks x 1 OpenMP threads
1000
Setting atom values ...
  1 settings made for z
Setting atom values ...
  1 settings made for y
Setting atom values ...
  1 settings made for z
Setting atom values ...
  1 settings made for y
Step Temp E_pair E_mol TotEng Press 
     123            0   -1241.4766            0   -1241.4766    1027937.5 
     124            0   -1257.1296            0   -1257.1296    967696.13 
Loop time of 0.00263095 on 1 procs for 1 steps with 72 atoms

152.0% CPU use with 1 MPI tasks x 1 OpenMP threads
1000
Setting atom values ...
  1 settings made for z
Setting atom values ...
  1 settings made for y
Setting atom values ...
  1 settings made for z
Setting atom values ...
  1 settings made for y
Step Temp E_pair E_mol TotEng Press 
     124            0   -1257.1296            0   -1257.1296    967696.13 
     125            0   -1188.0659            0   -1188.0659    1127535.5 
Loop time of 0.00262713 on 1 procs for 1 steps with 72 atoms

152.3% CPU use with 1 MPI tasks x 1 OpenMP threads
Setting atom values ...
  1 settings made for z
Setting atom values ...
  1 settings made for y
Setting atom values ...
  1 settings made for z
Setting atom values ...
  1 settings made for y
1000
Setting atom values ...
  1 settings made for z
Setting atom values ...
  1 settings made for y
Setting atom values ...
  1 settings made for z
Setting atom values ...
  1 settings made for y
Step Temp E_pair E_mol TotEng Press 
     125            0   -1188.0659            0   -1188.0659    1127535.5 
     126            0    -1249.247            0    -1249.247    991397.38 
Loop time of 0.00262594 on 1 procs for 1 steps with 72 atoms

152.3% CPU use with 1 MPI tasks x 1 OpenMP threads
1000
Setting atom values ...
  1 settings made for z
Setting atom values ...
  1 settings made for y
Setting atom values ...
  1 settings made for z
Setting atom values ...
  1 settings made for y
Step Temp E_pair E_mol TotEng Press 
     126            0    -1249.247            0    -1249.247    991397.38 
     127            0   -1243.7284            0   -1243.7284    1005173.7 
Loop time of 0.00191188 on 1 procs for 1 steps with 72 atoms

209.2% CPU use with 1 MPI tasks x 1 OpenMP threads
1000
Setting atom values ...
[...]
Loop time of 0.00263691 on 1 procs for 1 steps with 72 atoms

303.4% CPU use with 1 MPI tasks x 1 OpenMP threads
Setting atom values ...
  1 settings made for z
Setting atom values ...
  1 settings made for y
Setting atom values ...
  1 settings made for z
Setting atom values ...
  1 settings made for y
1000
Setting atom values ...
  1 settings made for z
Setting atom values ...
  1 settings made for y
Setting atom values ...
  1 settings made for z
Setting atom values ...
  1 settings made for y
Step Temp E_pair E_mol TotEng Press 
     972            0   -1611591.1            0   -1611591.1 -7.7035525e+09 
     973            0   -1611710.8            0   -1611710.8 -7.7037926e+09 
Loop time of 0.00263 on 1 procs for 1 steps with 72 atoms

0.0% CPU use with 1 MPI tasks x 1 OpenMP threads
Setting atom values ...
  1 settings made for z
Setting atom values ...
  1 settings made for y
Setting atom values ...
  1 settings made for z
Setting atom values ...
  1 settings made for y
1000
Setting atom values ...
  1 settings made for z
Setting atom values ...
  1 settings made for y
Setting atom values ...
  1 settings made for z
Setting atom values ...
  1 settings made for y
Step Temp E_pair E_mol TotEng Press 
     973            0   -1611710.8            0   -1611710.8 -7.7037926e+09 
     974            0   -1611685.1            0   -1611685.1 -7.7037666e+09 
Loop time of 0.00262594 on 1 procs for 1 steps with 72 atoms

0.0% CPU use with 1 MPI tasks x 1 OpenMP threads
Setting atom values ...
  1 settings made for z
Setting atom values ...
  1 settings made for y
Setting atom values ...
  1 settings made for z
Setting atom values ...
  1 settings made for y
1000
Setting atom values ...
  1 settings made for z
Setting atom values ...
  1 settings made for y
Setting atom values ...
  1 settings made for z
Setting atom values ...
  1 settings made for y
Step Temp E_pair E_mol TotEng Press 
     974            0   -1611685.1            0   -1611685.1 -7.7037666e+09 
     975            0   -1611629.1            0   -1611629.1 -7.7036131e+09 
Loop time of 0.00262713 on 1 procs for 1 steps with 72 atoms

0.0% CPU use with 1 MPI tasks x 1 OpenMP threads
Setting atom values ...
  1 settings made for z
Setting atom values ...
  1 settings made for y
Setting atom values ...
  1 settings made for z
Setting atom values ...
  1 settings made for y
1000
Setting atom values ...
  1 settings made for z
Setting atom values ...
  1 settings made for y
Setting atom values ...
  1 settings made for z
Setting atom values ...
  1 settings made for y
Step Temp E_pair E_mol TotEng Press 
     975            0   -1611629.1            0   -1611629.1 -7.7036131e+09 
     976            0     -1611657            0     -1611657 -7.7036695e+09 
Loop time of 0.00192094 on 1 procs for 1 steps with 72 atoms

0.0% CPU use with 1 MPI tasks x 1 OpenMP threads
Setting atom values ...
  1 settings made for z
Setting atom values ...
  1 settings made for y
Setting atom values ...
  1 settings made for z
Setting atom values ...
  1 settings made for y
1000
Setting atom values ...
  1 settings made for z
Setting atom values ...
  1 settings made for y
Setting atom values ...
  1 settings made for z
Setting atom values ...
  1 settings made for y
Step Temp E_pair E_mol TotEng Press 
     976            0     -1611657            0     -1611657 -7.7036695e+09 
     977            0   -16184.152            0   -16184.152    -85316028 
Loop time of 0.00191212 on 1 procs for 1 steps with 72 atoms

0.0% CPU use with 1 MPI tasks x 1 OpenMP threads
Setting atom values ...
  1 settings made for z
Setting atom values ...
  1 settings made for y
Setting atom values ...
  1 settings made for z
Setting atom values ...
  1 settings made for y
1000
Setting atom values ...
  1 settings made for z
Setting atom values ...
  1 settings made for y
Setting atom values ...
  1 settings made for z
Setting atom values ...
  1 settings made for y
Step Temp E_pair E_mol TotEng Press 
     977            0   -16184.152            0   -16184.152    -85316028 
     978            0   -1611698.7            0   -1611698.7 -7.7037795e+09 
Loop time of 0.00191903 on 1 procs for 1 steps with 72 atoms

0.0% CPU use with 1 MPI tasks x 1 OpenMP threads
Setting atom values ...
  1 settings made for z
Setting atom values ...
  1 settings made for y
Setting atom values ...
  1 settings made for z
Setting atom values ...
  1 settings made for y
1000
Setting atom values ...
  1 settings made for z
Setting atom values ...
  1 settings made for y
Setting atom values ...
  1 settings made for z
Setting atom values ...
  1 settings made for y
Step Temp E_pair E_mol TotEng Press 
     978            0   -1611698.7            0   -1611698.7 -7.7037795e+09 
     979            0   -1611733.3            0   -1611733.3 -7.7038799e+09 
Loop time of 0.00191689 on 1 procs for 1 steps with 72 atoms

417.3% CPU use with 1 MPI tasks x 1 OpenMP threads
1000
Setting atom values ...
  1 settings made for z
Setting atom values ...
  1 settings made for y
Setting atom values ...
  1 settings made for z
Setting atom values ...
  1 settings made for y
Step Temp E_pair E_mol TotEng Press 
     979            0   -1611733.3            0   -1611733.3 -7.7038799e+09 
     980            0   -1611263.4            0   -1611263.4 -7.699706e+09 
Loop time of 0.00191498 on 1 procs for 1 steps with 72 atoms

0.0% CPU use with 1 MPI tasks x 1 OpenMP threads
Setting atom values ...
  1 settings made for z
Setting atom values ...
  1 settings made for y
Setting atom values ...
  1 settings made for z
Setting atom values ...
  1 settings made for y
1000
Setting atom values ...
  1 settings made for z
Setting atom values ...
  1 settings made for y
Setting atom values ...
  1 settings made for z
Setting atom values ...
  1 settings made for y
Step Temp E_pair E_mol TotEng Press 
     980            0   -1611263.4            0   -1611263.4 -7.699706e+09 
     981            0   -1611730.4            0   -1611730.4 -7.7038184e+09 
Loop time of 0.00261903 on 1 procs for 1 steps with 72 atoms

0.0% CPU use with 1 MPI tasks x 1 OpenMP threads
1000
Setting atom values ...
  1 settings made for z
Setting atom values ...
  1 settings made for y
Setting atom values ...
  1 settings made for z
Setting atom values ...
  1 settings made for y
Step Temp E_pair E_mol TotEng Press 
     981            0   -1611730.4            0   -1611730.4 -7.7038184e+09 
     982            0   -1611730.1            0   -1611730.1 -7.7037862e+09 
Loop time of 0.00190997 on 1 procs for 1 steps with 72 atoms

0.0% CPU use with 1 MPI tasks x 1 OpenMP threads
1000
Setting atom values ...
  1 settings made for z
Setting atom values ...
  1 settings made for y
Setting atom values ...
  1 settings made for z
Setting atom values ...
  1 settings made for y
Step Temp E_pair E_mol TotEng Press 
     982            0   -1611730.1            0   -1611730.1 -7.7037862e+09 
     983            0   -1611737.6            0   -1611737.6 -7.7038226e+09 
Loop time of 0.00192618 on 1 procs for 1 steps with 72 atoms

0.0% CPU use with 1 MPI tasks x 1 OpenMP threads
1000
Setting atom values ...
  1 settings made for z
Setting atom values ...
  1 settings made for y
Setting atom values ...
  1 settings made for z
Setting atom values ...
  1 settings made for y
Step Temp E_pair E_mol TotEng Press 
     983            0   -1611737.6            0   -1611737.6 -7.7038226e+09 
     984            0   -1611717.1            0   -1611717.1 -7.7038166e+09 
Loop time of 0.00191593 on 1 procs for 1 steps with 72 atoms

417.6% CPU use with 1 MPI tasks x 1 OpenMP threads
Setting atom values ...
  1 settings made for z
Setting atom values ...
  1 settings made for y
Setting atom values ...
  1 settings made for z
Setting atom values ...
  1 settings made for y
1000
Setting atom values ...
  1 settings made for z
Setting atom values ...
  1 settings made for y
Setting atom values ...
  1 settings made for z
Setting atom values ...
  1 settings made for y
Step Temp E_pair E_mol TotEng Press 
     984            0   -1611717.1            0   -1611717.1 -7.7038166e+09 
     985            0   -1611618.8            0   -1611618.8 -7.7035488e+09 
Loop time of 0.00262403 on 1 procs for 1 steps with 72 atoms

0.0% CPU use with 1 MPI tasks x 1 OpenMP threads
Setting atom values ...
  1 settings made for z
Setting atom values ...
  1 settings made for y
Setting atom values ...
  1 settings made for z
Setting atom values ...
  1 settings made for y
1000
Setting atom values ...
  1 settings made for z
Setting atom values ...
  1 settings made for y
Setting atom values ...
  1 settings made for z
Setting atom values ...
  1 settings made for y
Step Temp E_pair E_mol TotEng Press 
     985            0   -1611618.8            0   -1611618.8 -7.7035488e+09 
     986            0   -1611711.9            0   -1611711.9 -7.703716e+09 
Loop time of 0.00262499 on 1 procs for 1 steps with 72 atoms

304.8% CPU use with 1 MPI tasks x 1 OpenMP threads
Setting atom values ...
  1 settings made for z
Setting atom values ...
  1 settings made for y
Setting atom values ...
  1 settings made for z
Setting atom values ...
  1 settings made for y
1000
Setting atom values ...
  1 settings made for z
Setting atom values ...
  1 settings made for y
Setting atom values ...
  1 settings made for z
Setting atom values ...
  1 settings made for y
Step Temp E_pair E_mol TotEng Press 
     986            0   -1611711.9            0   -1611711.9 -7.703716e+09 
     987            0   -1611603.8            0   -1611603.8 -7.70354e+09 
Loop time of 0.00262308 on 1 procs for 1 steps with 72 atoms

0.0% CPU use with 1 MPI tasks x 1 OpenMP threads
Setting atom values ...
  1 settings made for z
Setting atom values ...
  1 settings made for y
Setting atom values ...
  1 settings made for z
Setting atom values ...
  1 settings made for y
1000
Setting atom values ...
  1 settings made for z
Setting atom values ...
  1 settings made for y
Setting atom values ...
  1 settings made for z
Setting atom values ...
  1 settings made for y
Step Temp E_pair E_mol TotEng Press 
     987            0   -1611603.8            0   -1611603.8 -7.70354e+09 
     988            0   -1611650.2            0   -1611650.2 -7.7036884e+09 
Loop time of 0.00263 on 1 procs for 1 steps with 72 atoms

304.2% CPU use with 1 MPI tasks x 1 OpenMP threads
Setting atom values ...
  1 settings made for z
Setting atom values ...
  1 settings made for y
Setting atom values ...
  1 settings made for z
Setting atom values ...
  1 settings made for y
1000
Setting atom values ...
  1 settings made for z
Setting atom values ...
  1 settings made for y
Setting atom values ...
  1 settings made for z
Setting atom values ...
  1 settings made for y
Step Temp E_pair E_mol TotEng Press 
     988            0   -1611650.2            0   -1611650.2 -7.7036884e+09 
     989            0   -1611722.5            0   -1611722.5 -7.7037715e+09 
Loop time of 0.00264812 on 1 procs for 1 steps with 72 atoms

0.0% CPU use with 1 MPI tasks x 1 OpenMP threads
Setting atom values ...
  1 settings made for z
Setting atom values ...
  1 settings made for y
Setting atom values ...
  1 settings made for z
Setting atom values ...
  1 settings made for y
1000
Setting atom values ...
  1 settings made for z
Setting atom values ...
  1 settings made for y
Setting atom values ...
  1 settings made for z
Setting atom values ...
  1 settings made for y
Step Temp E_pair E_mol TotEng Press 
     989            0   -1611722.5            0   -1611722.5 -7.7037715e+09 
     990            0   -1611734.2            0   -1611734.2 -7.7038377e+09 
Loop time of 0.00193095 on 1 procs for 1 steps with 72 atoms

414.3% CPU use with 1 MPI tasks x 1 OpenMP threads
1000
Setting atom values ...
  1 settings made for z
Setting atom values ...
  1 settings made for y
Setting atom values ...
  1 settings made for z
Setting atom values ...
  1 settings made for y
Step Temp E_pair E_mol TotEng Press 
     990            0   -1611734.2            0   -1611734.2 -7.7038377e+09 
     991            0   -1611652.4            0   -1611652.4 -7.7035824e+09 
Loop time of 0.00191402 on 1 procs for 1 steps with 72 atoms

0.0% CPU use with 1 MPI tasks x 1 OpenMP threads
Setting atom values ...
  1 settings made for z
Setting atom values ...
  1 settings made for y
Setting atom values ...
  1 settings made for z
Setting atom values ...
  1 settings made for y
1000
Setting atom values ...
  1 settings made for z
Setting atom values ...
  1 settings made for y
Setting atom values ...
  1 settings made for z
Setting atom values ...
  1 settings made for y
Step Temp E_pair E_mol TotEng Press 
     991            0   -1611652.4            0   -1611652.4 -7.7035824e+09 
     992            0   -5320244.8            0   -5320244.8 -2.5377595e+10 
Loop time of 0.00191617 on 1 procs for 1 steps with 72 atoms

0.0% CPU use with 1 MPI tasks x 1 OpenMP threads
1000
Setting atom values ...
  1 settings made for z
Setting atom values ...
  1 settings made for y
Setting atom values ...
  1 settings made for z
Setting atom values ...
  1 settings made for y
Step Temp E_pair E_mol TotEng Press 
     992            0   -5320244.8            0   -5320244.8 -2.5377595e+10 
     993            0   -5320228.8            0   -5320228.8 -2.5377565e+10 
Loop time of 0.00191188 on 1 procs for 1 steps with 72 atoms

418.4% CPU use with 1 MPI tasks x 1 OpenMP threads
Setting atom values ...
  1 settings made for z
Setting atom values ...
  1 settings made for y
Setting atom values ...
  1 settings made for z
Setting atom values ...
  1 settings made for y
1000
Setting atom values ...
  1 settings made for z
Setting atom values ...
  1 settings made for y
Setting atom values ...
  1 settings made for z
Setting atom values ...
  1 settings made for y
Step Temp E_pair E_mol TotEng Press 
     993            0   -5320228.8            0   -5320228.8 -2.5377565e+10 
     994            0   -5320238.7            0   -5320238.7 -2.5377616e+10 
Loop time of 0.00192118 on 1 procs for 1 steps with 72 atoms

0.0% CPU use with 1 MPI tasks x 1 OpenMP threads
Setting atom values ...
  1 settings made for z
Setting atom values ...
  1 settings made for y
Setting atom values ...
  1 settings made for z
Setting atom values ...
  1 settings made for y
1000
Setting atom values ...
  1 settings made for z
Setting atom values ...
  1 settings made for y
Setting atom values ...
  1 settings made for z
Setting atom values ...
  1 settings made for y
Step Temp E_pair E_mol TotEng Press 
     994            0   -5320238.7            0   -5320238.7 -2.5377616e+10 
     995            0   -12812.133            0   -12812.133    -65065947 
Loop time of 0.00191712 on 1 procs for 1 steps with 72 atoms

0.0% CPU use with 1 MPI tasks x 1 OpenMP threads
Setting atom values ...
  1 settings made for z
Setting atom values ...
  1 settings made for y
Setting atom values ...
  1 settings made for z
Setting atom values ...
  1 settings made for y
1000
Setting atom values ...
  1 settings made for z
Setting atom values ...
  1 settings made for y
Setting atom values ...
  1 settings made for z
Setting atom values ...
  1 settings made for y
Step Temp E_pair E_mol TotEng Press 
     995            0   -12812.133            0   -12812.133    -65065947 
     996            0   -5320246.1            0   -5320246.1 -2.5377633e+10 
Loop time of 0.00264192 on 1 procs for 1 steps with 72 atoms

0.0% CPU use with 1 MPI tasks x 1 OpenMP threads
1000
Setting atom values ...
  1 settings made for z
Setting atom values ...
  1 settings made for y
Setting atom values ...
  1 settings made for z
Setting atom values ...
  1 settings made for y
Step Temp E_pair E_mol TotEng Press 
     996            0   -5320246.1            0   -5320246.1 -2.5377633e+10 
     997            0   -5320014.4            0   -5320014.4 -2.5377135e+10 
Loop time of 0.00262499 on 1 procs for 1 steps with 72 atoms

0.0% CPU use with 1 MPI tasks x 1 OpenMP threads
Setting atom values ...
  1 settings made for z
Setting atom values ...
  1 settings made for y
Setting atom values ...
  1 settings made for z
Setting atom values ...
  1 settings made for y
1000
Setting atom values ...
  1 settings made for z
Setting atom values ...
  1 settings made for y
Setting atom values ...
  1 settings made for z
Setting atom values ...
  1 settings made for y
Step Temp E_pair E_mol TotEng Press 
     997            0   -5320014.4            0   -5320014.4 -2.5377135e+10 
     998            0   -5320234.9            0   -5320234.9 -2.5377581e+10 
Loop time of 0.00263596 on 1 procs for 1 steps with 72 atoms

0.0% CPU use with 1 MPI tasks x 1 OpenMP threads
1000
Setting atom values ...
  1 settings made for z
Setting atom values ...
  1 settings made for y
Setting atom values ...
  1 settings made for z
Setting atom values ...
  1 settings made for y
Step Temp E_pair E_mol TotEng Press 
     998            0   -5320234.9            0   -5320234.9 -2.5377581e+10 
     999            0   -5320034.2            0   -5320034.2 -2.5377137e+10 
Loop time of 0.00191307 on 1 procs for 1 steps with 72 atoms

0.0% CPU use with 1 MPI tasks x 1 OpenMP threads
Setting atom values ...
  1 settings made for z
Setting atom values ...
  1 settings made for y
Setting atom values ...
  1 settings made for z
Setting atom values ...
  1 settings made for y
1000
Setting atom values ...
  1 settings made for z
Setting atom values ...
  1 settings made for y
Setting atom values ...
  1 settings made for z
Setting atom values ...
  1 settings made for y
Step Temp E_pair E_mol TotEng Press 
     999            0   -5320034.2            0   -5320034.2 -2.5377137e+10 
    1000            0   -5320235.3            0   -5320235.3 -2.5377589e+10 
Loop time of 0.00190902 on 1 procs for 1 steps with 72 atoms

0.0% CPU use with 1 MPI tasks x 1 OpenMP threads
WARNING: No fixes defined, atoms won't move (../verlet.cpp:55)
PPPM initialization ...
WARNING: Using polynomial approximation for long-range coulomb (../kspace.cpp:316)
  G vector (1/distance) = 0.400041
  grid = 8 15 15
  stencil order = 5
  estimated absolute RMS force accuracy = 0.000671313
  estimated relative force accuracy = 4.66201e-05
  using double precision FFTs
  3d grid and FFT values/proc = 8228 1800
Setting up Verlet run ...
  Unit style    : metal
  Current step  : 1000
  Time step     : 0.001
Memory usage per processor = 4.7433 Mbytes
Step Temp E_pair E_mol TotEng Press 
    1000            0   -5320235.3            0   -5320235.3 -2.5377589e+10 
Loop time of 0 on 1 procs for 0 steps with 72 atoms

0.0% CPU use with 1 MPI tasks x 1 OpenMP threads

MPI task timing breakdown:
Section |  min time  |  avg time  |  max time  |%varavg| %total
---------------------------------------------------------------
Pair    | 0          | 0          | 0          |   0.0 |  0.00
Kspace  | 0          | 0          | 0          |   0.0 |  0.00
Neigh   | 0          | 0          | 0          |   0.0 |  0.00
Comm    | 0          | 0          | 0          |   0.0 |  0.00
Output  | 0          | 0          | 0          |   0.0 |  0.00
Modify  | 0          | 0          | 0          |   0.0 |  0.00
Other   |            | 0          |            |       |  0.00

Nlocal:    72 ave 72 max 72 min
Histogram: 1 0 0 0 0 0 0 0 0 0
Nghost:    2579 ave 2579 max 2579 min
Histogram: 1 0 0 0 0 0 0 0 0 0
Neighs:    16126 ave 16126 max 16126 min
Histogram: 1 0 0 0 0 0 0 0 0 0

Total # of neighbors = 16126
Ave neighs/atom = 223.972
Neighbor list builds = 0
Dangerous builds = 0

MC stats:
  	neighbor list rebuilds = 362
  	starting energy = -1481.42658366852
  	final energy = -5320235.27925764
  	minimum energy of perfect lattice = -1481.42658366852

  Disordered accepted MC moves = 428
  Disordered total moves = 1000
  accepted MC moves = 0
  Total moves = 0
ERROR: Divide by 0 in variable formula (../variable.cpp:2114)
