LAMMPS (1 Jul 2016-ICMS)
WARNING: OMP_NUM_THREADS environment is not set. (../comm.cpp:90)
  using 1 OpenMP thread(s) per MPI task
Optimise lattice constant of MgO crystal
Created orthogonal box = (0 0 0) to (4.212 42.12 42.12)
  1 by 1 by 1 MPI processor grid
Scanning dump file ...
Reading snapshot from dump file ...
  orthogonal box = (0 0 0) to (4.212 42.12 42.12)
  0 atoms before read
  800 atoms in snapshot
  0 atoms purged
  0 atoms replaced
  0 atoms trimmed
  800 atoms added
  800 atoms after read
Setting atom values ...
  400 settings made for charge
Setting atom values ...
  400 settings made for charge
WARNING: No fixes defined, atoms won't move (../verlet.cpp:55)
PPPM initialization ...
WARNING: Using polynomial approximation for long-range coulomb (../kspace.cpp:316)
  G vector (1/distance) = 0.387869
  grid = 8 40 40
  stencil order = 5
  estimated absolute RMS force accuracy = 0.00123919
  estimated relative force accuracy = 8.60569e-05
  using double precision FFTs
  3d grid and FFT values/proc = 37553 12800
Neighbor list info ...
  2 neighbor list requests
  update every 1 steps, delay 0 steps, check yes
  max neighbors/atom: 2000, page size: 100000
  master list distance cutoff = 10
  ghost atom cutoff = 10
  binsize = 5, bins = 1 9 9
Setting up Verlet run ...
  Unit style    : metal
  Current step  : 0
  Time step     : 0.001
Memory usage per processor = 5.9687 Mbytes
Step Temp E_pair E_mol TotEng Press 
       0            0   -14419.882            0   -14419.882    806205.31 
Loop time of 9.53674e-07 on 1 procs for 0 steps with 800 atoms

0.0% CPU use with 1 MPI tasks x 1 OpenMP threads

MPI task timing breakdown:
Section |  min time  |  avg time  |  max time  |%varavg| %total
---------------------------------------------------------------
Pair    | 0          | 0          | 0          |   0.0 |  0.00
Kspace  | 0          | 0          | 0          |   0.0 |  0.00
Neigh   | 0          | 0          | 0          |   0.0 |  0.00
Comm    | 0          | 0          | 0          |   0.0 |  0.00
Output  | 0          | 0          | 0          |   0.0 |  0.00
Modify  | 0          | 0          | 0          |   0.0 |  0.00
Other   |            | 9.537e-07  |            |       |100.00

Nlocal:    800 ave 800 max 800 min
Histogram: 1 0 0 0 0 0 0 0 0 0
Nghost:    8616 ave 8616 max 8616 min
Histogram: 1 0 0 0 0 0 0 0 0 0
Neighs:    180244 ave 180244 max 180244 min
Histogram: 1 0 0 0 0 0 0 0 0 0

Total # of neighbors = 180244
Ave neighs/atom = 225.305
Neighbor list builds = 0
Dangerous builds = 0
Setting atom values ...
  800 settings made for z
Setting atom values ...
  800 settings made for y
WARNING: No fixes defined, atoms won't move (../verlet.cpp:55)
PPPM initialization ...
WARNING: Using polynomial approximation for long-range coulomb (../kspace.cpp:316)
  G vector (1/distance) = 0.387869
  grid = 8 40 40
  stencil order = 5
  estimated absolute RMS force accuracy = 0.00123919
  estimated relative force accuracy = 8.60569e-05
  using double precision FFTs
  3d grid and FFT values/proc = 37553 12800
Setting up Verlet run ...
  Unit style    : metal
  Current step  : 0
  Time step     : 0.001
Memory usage per processor = 7.24922 Mbytes
Step Temp E_pair E_mol TotEng Press 
       0            0   -14419.882            0   -14419.882    806205.31 
Loop time of 9.53674e-07 on 1 procs for 0 steps with 800 atoms

0.0% CPU use with 1 MPI tasks x 1 OpenMP threads
Setting atom values ...
  1 settings made for z
Setting atom values ...
  1 settings made for y
Setting atom values ...
  1 settings made for z
Setting atom values ...
  1 settings made for y
WARNING: No fixes defined, atoms won't move (../verlet.cpp:55)
PPPM initialization ...
WARNING: Using polynomial approximation for long-range coulomb (../kspace.cpp:316)
  G vector (1/distance) = 0.387869
  grid = 8 40 40
  stencil order = 5
  estimated absolute RMS force accuracy = 0.00123919
  estimated relative force accuracy = 8.60569e-05
  using double precision FFTs
  3d grid and FFT values/proc = 37553 12800
Setting up Verlet run ...
  Unit style    : metal
  Current step  : 0
  Time step     : 0.001
Memory usage per processor = 7.51143 Mbytes
Step Temp E_pair E_mol TotEng Press 
       0            0   -14422.037            0   -14422.037    804868.96 
Loop time of 9.53674e-07 on 1 procs for 0 steps with 800 atoms

0.0% CPU use with 1 MPI tasks x 1 OpenMP threads
not skipped
-14419.8817876462 -14422.03662422
WARNING: No fixes defined, atoms won't move (../verlet.cpp:55)
PPPM initialization ...
WARNING: Using polynomial approximation for long-range coulomb (../kspace.cpp:316)
  G vector (1/distance) = 0.387869
  grid = 8 40 40
  stencil order = 5
  estimated absolute RMS force accuracy = 0.00123919
  estimated relative force accuracy = 8.60569e-05
  using double precision FFTs
  3d grid and FFT values/proc = 37553 12800
Setting up Verlet run ...
  Unit style    : metal
  Current step  : 0
  Time step     : 0.001
Memory usage per processor = 7.51143 Mbytes
Step Temp E_pair E_mol TotEng Press 
       0            0   -14422.037            0   -14422.037    804868.96 
       1            0   -14422.037            0   -14422.037    804868.96 
Loop time of 0.021832 on 1 procs for 1 steps with 800 atoms

91.6% CPU use with 1 MPI tasks x 1 OpenMP threads
-14422.03662422 0.026
Setting atom values ...
  1 settings made for z
Setting atom values ...
  1 settings made for y
Setting atom values ...
  1 settings made for z
Setting atom values ...
  1 settings made for y
WARNING: No fixes defined, atoms won't move (../verlet.cpp:55)
PPPM initialization ...
WARNING: Using polynomial approximation for long-range coulomb (../kspace.cpp:316)
  G vector (1/distance) = 0.387869
  grid = 8 40 40
  stencil order = 5
  estimated absolute RMS force accuracy = 0.00123919
  estimated relative force accuracy = 8.60569e-05
  using double precision FFTs
  3d grid and FFT values/proc = 37553 12800
Setting up Verlet run ...
  Unit style    : metal
  Current step  : 1
  Time step     : 0.001
Memory usage per processor = 7.51143 Mbytes
Step Temp E_pair E_mol TotEng Press 
       1            0   -14424.042            0   -14424.042    803512.87 
Loop time of 9.53674e-07 on 1 procs for 0 steps with 800 atoms

0.0% CPU use with 1 MPI tasks x 1 OpenMP threads
not skipped
-14422.03662422 -14424.0423445987
WARNING: No fixes defined, atoms won't move (../verlet.cpp:55)
PPPM initialization ...
WARNING: Using polynomial approximation for long-range coulomb (../kspace.cpp:316)
  G vector (1/distance) = 0.387869
  grid = 8 40 40
  stencil order = 5
  estimated absolute RMS force accuracy = 0.00123919
  estimated relative force accuracy = 8.60569e-05
  using double precision FFTs
  3d grid and FFT values/proc = 37553 12800
Setting up Verlet run ...
  Unit style    : metal
  Current step  : 1
  Time step     : 0.001
Memory usage per processor = 7.51143 Mbytes
Step Temp E_pair E_mol TotEng Press 
       1            0   -14424.042            0   -14424.042    803512.87 
       2            0   -14424.042            0   -14424.042    803512.87 
Loop time of 0.0218291 on 1 procs for 1 steps with 800 atoms

91.6% CPU use with 1 MPI tasks x 1 OpenMP threads
-14424.0423445987 0.026
Setting atom values ...
  1 settings made for z
Setting atom values ...
  1 settings made for y
Setting atom values ...
  1 settings made for z
Setting atom values ...
  1 settings made for y
WARNING: No fixes defined, atoms won't move (../verlet.cpp:55)
PPPM initialization ...
WARNING: Using polynomial approximation for long-range coulomb (../kspace.cpp:316)
  G vector (1/distance) = 0.387869
  grid = 8 40 40
  stencil order = 5
  estimated absolute RMS force accuracy = 0.00123919
  estimated relative force accuracy = 8.60569e-05
  using double precision FFTs
  3d grid and FFT values/proc = 37553 12800
Setting up Verlet run ...
  Unit style    : metal
  Current step  : 2
  Time step     : 0.001
Memory usage per processor = 7.51143 Mbytes
Step Temp E_pair E_mol TotEng Press 
       2            0   -14421.658            0   -14421.658    804250.22 
Loop time of 1.19209e-06 on 1 procs for 0 steps with 800 atoms

0.0% CPU use with 1 MPI tasks x 1 OpenMP threads
not skipped
Setting atom values ...
  1 settings made for z
Setting atom values ...
  1 settings made for y
Setting atom values ...
  1 settings made for z
Setting atom values ...
  1 settings made for y
WARNING: No fixes defined, atoms won't move (../verlet.cpp:55)
PPPM initialization ...
WARNING: Using polynomial approximation for long-range coulomb (../kspace.cpp:316)
  G vector (1/distance) = 0.387869
  grid = 8 40 40
  stencil order = 5
  estimated absolute RMS force accuracy = 0.00123919
  estimated relative force accuracy = 8.60569e-05
  using double precision FFTs
  3d grid and FFT values/proc = 37553 12800
Setting up Verlet run ...
  Unit style    : metal
  Current step  : 2
  Time step     : 0.001
Memory usage per processor = 7.51143 Mbytes
Step Temp E_pair E_mol TotEng Press 
       2            0   -14424.042            0   -14424.042    803512.87 
       3            0   -14424.042            0   -14424.042    803512.87 
Loop time of 0.022356 on 1 procs for 1 steps with 800 atoms

89.5% CPU use with 1 MPI tasks x 1 OpenMP threads
-14424.0423445987 0.026
Setting atom values ...
  1 settings made for z
Setting atom values ...
  1 settings made for y
Setting atom values ...
  1 settings made for z
Setting atom values ...
  1 settings made for y
WARNING: No fixes defined, atoms won't move (../verlet.cpp:55)
PPPM initialization ...
WARNING: Using polynomial approximation for long-range coulomb (../kspace.cpp:316)
  G vector (1/distance) = 0.387869
  grid = 8 40 40
  stencil order = 5
  estimated absolute RMS force accuracy = 0.00123919
  estimated relative force accuracy = 8.60569e-05
  using double precision FFTs
  3d grid and FFT values/proc = 37553 12800
Setting up Verlet run ...
  Unit style    : metal
  Current step  : 3
  Time step     : 0.001
Memory usage per processor = 7.51143 Mbytes
Step Temp E_pair E_mol TotEng Press 
       3            0   -14419.789            0   -14419.789    805101.32 
Loop time of 9.53674e-07 on 1 procs for 0 steps with 800 atoms

0.0% CPU use with 1 MPI tasks x 1 OpenMP threads
not skipped
Setting atom values ...
  1 settings made for z
Setting atom values ...
  1 settings made for y
Setting atom values ...
  1 settings made for z
Setting atom values ...
  1 settings made for y
WARNING: No fixes defined, atoms won't move (../verlet.cpp:55)
PPPM initialization ...
WARNING: Using polynomial approximation for long-range coulomb (../kspace.cpp:316)
  G vector (1/distance) = 0.387869
  grid = 8 40 40
  stencil order = 5
  estimated absolute RMS force accuracy = 0.00123919
  estimated relative force accuracy = 8.60569e-05
  using double precision FFTs
  3d grid and FFT values/proc = 37553 12800
Setting up Verlet run ...
  Unit style    : metal
  Current step  : 3
  Time step     : 0.001
Memory usage per processor = 7.51143 Mbytes
Step Temp E_pair E_mol TotEng Press 
       3            0   -14424.042            0   -14424.042    803512.87 
       4            0   -14424.042            0   -14424.042    803512.87 
Loop time of 0.021847 on 1 procs for 1 steps with 800 atoms

91.5% CPU use with 1 MPI tasks x 1 OpenMP threads
-14424.0423445987 0.026
Setting atom values ...
  1 settings made for z
Setting atom values ...
  1 settings made for y
Setting atom values ...
  1 settings made for z
Setting atom values ...
  1 settings made for y
WARNING: No fixes defined, atoms won't move (../verlet.cpp:55)
PPPM initialization ...
WARNING: Using polynomial approximation for long-range coulomb (../kspace.cpp:316)
  G vector (1/distance) = 0.387869
  grid = 8 40 40
  stencil order = 5
  estimated absolute RMS force accuracy = 0.00123919
  estimated relative force accuracy = 8.60569e-05
  using double precision FFTs
  3d grid and FFT values/proc = 37553 12800
Setting up Verlet run ...
  Unit style    : metal
  Current step  : 4
  Time step     : 0.001
Memory usage per processor = 7.51143 Mbytes
Step Temp E_pair E_mol TotEng Press 
       4            0   -14425.789            0   -14425.789    803485.77 
Loop time of 0 on 1 procs for 0 steps with 800 atoms

0.0% CPU use with 1 MPI tasks x 1 OpenMP threads
not skipped
-14424.0423445987 -14425.7894861493
WARNING: No fixes defined, atoms won't move (../verlet.cpp:55)
PPPM initialization ...
WARNING: Using polynomial approximation for long-range coulomb (../kspace.cpp:316)
  G vector (1/distance) = 0.387869
  grid = 8 40 40
  stencil order = 5
  estimated absolute RMS force accuracy = 0.00123919
  estimated relative force accuracy = 8.60569e-05
  using double precision FFTs
  3d grid and FFT values/proc = 37553 12800
Setting up Verlet run ...
  Unit style    : metal
  Current step  : 4
  Time step     : 0.001
Memory usage per processor = 7.51143 Mbytes
Step Temp E_pair E_mol TotEng Press 
       4            0   -14425.789            0   -14425.789    803485.77 
       5            0   -14425.789            0   -14425.789    803485.77 
Loop time of 0.022346 on 1 procs for 1 steps with 800 atoms

107.4% CPU use with 1 MPI tasks x 1 OpenMP threads
-14425.7894861493 0.026
Setting atom values ...
  1 settings made for z
Setting atom values ...
  1 settings made for y
Setting atom values ...
  1 settings made for z
Setting atom values ...
  1 settings made for y
WARNING: No fixes defined, atoms won't move (../verlet.cpp:55)
PPPM initialization ...
WARNING: Using polynomial approximation for long-range coulomb (../kspace.cpp:316)
  G vector (1/distance) = 0.387869
  grid = 8 40 40
  stencil order = 5
  estimated absolute RMS force accuracy = 0.00123919
  estimated relative force accuracy = 8.60569e-05
  using double precision FFTs
  3d grid and FFT values/proc = 37553 12800
Setting up Verlet run ...
  Unit style    : metal
  Current step  : 5
  Time step     : 0.001
Memory usage per processor = 7.51143 Mbytes
Step Temp E_pair E_mol TotEng Press 
       5            0   -14405.772            0   -14405.772    807868.53 
Loop time of 9.53674e-07 on 1 procs for 0 steps with 800 atoms

0.0% CPU use with 1 MPI tasks x 1 OpenMP threads
not skipped
Setting atom values ...
  1 settings made for z
Setting atom values ...
  1 settings made for y
Setting atom values ...
  1 settings made for z
Setting atom values ...
  1 settings made for y
WARNING: No fixes defined, atoms won't move (../verlet.cpp:55)
PPPM initialization ...
WARNING: Using polynomial approximation for long-range coulomb (../kspace.cpp:316)
  G vector (1/distance) = 0.387869
  grid = 8 40 40
  stencil order = 5
  estimated absolute RMS force accuracy = 0.00123919
  estimated relative force accuracy = 8.60569e-05
  using double precision FFTs
  3d grid and FFT values/proc = 37553 12800
Setting up Verlet run ...
  Unit style    : metal
  Current step  : 5
  Time step     : 0.001
Memory usage per processor = 7.51143 Mbytes
Step Temp E_pair E_mol TotEng Press 
       5            0   -14425.789            0   -14425.789    803485.77 
       6            0   -14425.789            0   -14425.789    803485.77 
Loop time of 0.0218489 on 1 procs for 1 steps with 800 atoms

109.8% CPU use with 1 MPI tasks x 1 OpenMP threads
-14425.7894861493 0.026
Setting atom values ...
  1 settings made for z
Setting atom values ...
  1 settings made for y
Setting atom values ...
  1 settings made for z
Setting atom values ...
  1 settings made for y
WARNING: No fixes defined, atoms won't move (../verlet.cpp:55)
PPPM initialization ...
WARNING: Using polynomial approximation for long-range coulomb (../kspace.cpp:316)
  G vector (1/distance) = 0.387869
  grid = 8 40 40
  stencil order = 5
  estimated absolute RMS force accuracy = 0.00123919
  estimated relative force accuracy = 8.60569e-05
  using double precision FFTs
  3d grid and FFT values/proc = 37553 12800
Setting up Verlet run ...
  Unit style    : metal
  Current step  : 6
  Time step     : 0.001
Memory usage per processor = 7.51143 Mbytes
Step Temp E_pair E_mol TotEng Press 
       6            0   -14426.583            0   -14426.583    803406.58 
Loop time of 0 on 1 procs for 0 steps with 800 atoms

0.0% CPU use with 1 MPI tasks x 1 OpenMP threads
not skipped
-14425.7894861493 -14426.5829936341
WARNING: No fixes defined, atoms won't move (../verlet.cpp:55)
PPPM initialization ...
WARNING: Using polynomial approximation for long-range coulomb (../kspace.cpp:316)
  G vector (1/distance) = 0.387869
  grid = 8 40 40
  stencil order = 5
  estimated absolute RMS force accuracy = 0.00123919
  estimated relative force accuracy = 8.60569e-05
  using double precision FFTs
  3d grid and FFT values/proc = 37553 12800
Setting up Verlet run ...
  Unit style    : metal
  Current step  : 6
  Time step     : 0.001
Memory usage per processor = 7.51143 Mbytes
Step Temp E_pair E_mol TotEng Press 
       6            0   -14426.583            0   -14426.583    803406.58 
       7            0   -14426.583            0   -14426.583    803406.58 
Loop time of 0.022022 on 1 procs for 1 steps with 800 atoms

109.0% CPU use with 1 MPI tasks x 1 OpenMP threads
-14426.5829936341 0.026
Setting atom values ...
  1 settings made for z
Setting atom values ...
  1 settings made for y
Setting atom values ...
  1 settings made for z
Setting atom values ...
  1 settings made for y
WARNING: No fixes defined, atoms won't move (../verlet.cpp:55)
PPPM initialization ...
WARNING: Using polynomial approximation for long-range coulomb (../kspace.cpp:316)
  G vector (1/distance) = 0.387869
  grid = 8 40 40
  stencil order = 5
  estimated absolute RMS force accuracy = 0.00123919
  estimated relative force accuracy = 8.60569e-05
  using double precision FFTs
  3d grid and FFT values/proc = 37553 12800
Setting up Verlet run ...
  Unit style    : metal
  Current step  : 7
  Time step     : 0.001
Memory usage per processor = 7.51143 Mbytes
Step Temp E_pair E_mol TotEng Press 
       7            0    -14427.33            0    -14427.33    802645.28 
Loop time of 0 on 1 procs for 0 steps with 800 atoms

0.0% CPU use with 1 MPI tasks x 1 OpenMP threads
not skipped
-14426.5829936341 -14427.3300805464
WARNING: No fixes defined, atoms won't move (../verlet.cpp:55)
PPPM initialization ...
WARNING: Using polynomial approximation for long-range coulomb (../kspace.cpp:316)
  G vector (1/distance) = 0.387869
  grid = 8 40 40
  stencil order = 5
  estimated absolute RMS force accuracy = 0.00123919
  estimated relative force accuracy = 8.60569e-05
  using double precision FFTs
  3d grid and FFT values/proc = 37553 12800
Setting up Verlet run ...
  Unit style    : metal
  Current step  : 7
  Time step     : 0.001
Memory usage per processor = 7.51143 Mbytes
Step Temp E_pair E_mol TotEng Press 
       7            0    -14427.33            0    -14427.33    802645.28 
       8            0    -14427.33            0    -14427.33    802645.28 
Loop time of 0.0221221 on 1 procs for 1 steps with 800 atoms

108.5% CPU use with 1 MPI tasks x 1 OpenMP threads
-14427.3300805464 0.026
Setting atom values ...
  1 settings made for z
Setting atom values ...
  1 settings made for y
Setting atom values ...
  1 settings made for z
Setting atom values ...
  1 settings made for y
WARNING: No fixes defined, atoms won't move (../verlet.cpp:55)
PPPM initialization ...
WARNING: Using polynomial approximation for long-range coulomb (../kspace.cpp:316)
  G vector (1/distance) = 0.387869
  grid = 8 40 40
  stencil order = 5
  estimated absolute RMS force accuracy = 0.00123919
  estimated relative force accuracy = 8.60569e-05
  using double precision FFTs
  3d grid and FFT values/proc = 37553 12800
Setting up Verlet run ...
  Unit style    : metal
  Current step  : 8
  Time step     : 0.001
Memory usage per processor = 7.51143 Mbytes
Step Temp E_pair E_mol TotEng Press 
       8            0   -14421.862            0   -14421.862    805038.66 
Loop time of 9.53674e-07 on 1 procs for 0 steps with 800 atoms

0.0% CPU use with 1 MPI tasks x 1 OpenMP threads
not skipped
Setting atom values ...
  1 settings made for z
Setting atom values ...
  1 settings made for y
Setting atom values ...
  1 settings made for z
Setting atom values ...
  1 settings made for y
WARNING: No fixes defined, atoms won't move (../verlet.cpp:55)
PPPM initialization ...
WARNING: Using polynomial approximation for long-range coulomb (../kspace.cpp:316)
  G vector (1/distance) = 0.387869
  grid = 8 40 40
  stencil order = 5
  estimated absolute RMS force accuracy = 0.00123919
  estimated relative force accuracy = 8.60569e-05
  using double precision FFTs
  3d grid and FFT values/proc = 37553 12800
Setting up Verlet run ...
  Unit style    : metal
  Current step  : 8
  Time step     : 0.001
Memory usage per processor = 7.51143 Mbytes
Step Temp E_pair E_mol TotEng Press 
       8            0    -14427.33            0    -14427.33    802645.28 
       9            0    -14427.33            0    -14427.33    802645.28 
Loop time of 0.0219071 on 1 procs for 1 steps with 800 atoms

91.3% CPU use with 1 MPI tasks x 1 OpenMP threads
-14427.3300805464 0.026
Setting atom values ...
  1 settings made for z
Setting atom values ...
  1 settings made for y
Setting atom values ...
  1 settings made for z
Setting atom values ...
  1 settings made for y
WARNING: No fixes defined, atoms won't move (../verlet.cpp:55)
PPPM initialization ...
WARNING: Using polynomial approximation for long-range coulomb (../kspace.cpp:316)
  G vector (1/distance) = 0.387869
  grid = 8 40 40
  stencil order = 5
  estimated absolute RMS force accuracy = 0.00123919
  estimated relative force accuracy = 8.60569e-05
  using double precision FFTs
  3d grid and FFT values/proc = 37553 12800
Setting up Verlet run ...
  Unit style    : metal
  Current step  : 9
  Time step     : 0.001
Memory usage per processor = 7.51143 Mbytes
Step Temp E_pair E_mol TotEng Press 
       9            0    -14422.77            0    -14422.77    803994.67 
Loop time of 9.53674e-07 on 1 procs for 0 steps with 800 atoms

0.0% CPU use with 1 MPI tasks x 1 OpenMP threads
not skipped
Setting atom values ...
  1 settings made for z
Setting atom values ...
  1 settings made for y
Setting atom values ...
  1 settings made for z
Setting atom values ...
  1 settings made for y
WARNING: No fixes defined, atoms won't move (../verlet.cpp:55)
PPPM initialization ...
WARNING: Using polynomial approximation for long-range coulomb (../kspace.cpp:316)
  G vector (1/distance) = 0.387869
  grid = 8 40 40
  stencil order = 5
  estimated absolute RMS force accuracy = 0.00123919
  estimated relative force accuracy = 8.60569e-05
  using double precision FFTs
  3d grid and FFT values/proc = 37553 12800
Setting up Verlet run ...
  Unit style    : metal
  Current step  : 9
  Time step     : 0.001
Memory usage per processor = 7.51143 Mbytes
Step Temp E_pair E_mol TotEng Press 
       9            0    -14427.33            0    -14427.33    802645.28 
      10            0    -14427.33            0    -14427.33    802645.28 
Loop time of 0.0225332 on 1 procs for 1 steps with 800 atoms

88.8% CPU use with 1 MPI tasks x 1 OpenMP threads
-14427.3300805464 0.026
Setting atom values ...
  1 settings made for z
Setting atom values ...
  1 settings made for y
Setting atom values ...
  1 settings made for z
Setting atom values ...
  1 settings made for y
WARNING: No fixes defined, atoms won't move (../verlet.cpp:55)
PPPM initialization ...
WARNING: Using polynomial approximation for long-range coulomb (../kspace.cpp:316)
  G vector (1/distance) = 0.387869
  grid = 8 40 40
  stencil order = 5
  estimated absolute RMS force accuracy = 0.00123919
  estimated relative force accuracy = 8.60569e-05
  using double precision FFTs
  3d grid and FFT values/proc = 37553 12800
Setting up Verlet run ...
  Unit style    : metal
  Current step  : 10
  Time step     : 0.001
Memory usage per processor = 7.51143 Mbytes
Step Temp E_pair E_mol TotEng Press 
      10            0   -14427.203            0   -14427.203    803371.89 
Loop time of 9.53674e-07 on 1 procs for 0 steps with 800 atoms

0.0% CPU use with 1 MPI tasks x 1 OpenMP threads
not skipped
Setting atom values ...
  1 settings made for z
Setting atom values ...
  1 settings made for y
Setting atom values ...
  1 settings made for z
Setting atom values ...
  1 settings made for y
WARNING: No fixes defined, atoms won't move (../verlet.cpp:55)
PPPM initialization ...
WARNING: Using polynomial approximation for long-range coulomb (../kspace.cpp:316)
  G vector (1/distance) = 0.387869
  grid = 8 40 40
  stencil order = 5
  estimated absolute RMS force accuracy = 0.00123919
  estimated relative force accuracy = 8.60569e-05
  using double precision FFTs
  3d grid and FFT values/proc = 37553 12800
Setting up Verlet run ...
  Unit style    : metal
  Current step  : 10
  Time step     : 0.001
Memory usage per processor = 7.51143 Mbytes
Step Temp E_pair E_mol TotEng Press 
      10            0    -14427.33            0    -14427.33    802645.28 
      11            0    -14427.33            0    -14427.33    802645.28 
Loop time of 0.022131 on 1 procs for 1 steps with 800 atoms

108.4% CPU use with 1 MPI tasks x 1 OpenMP threads
-14427.3300805464 0.026
Setting atom values ...
  1 settings made for z
Setting atom values ...
  1 settings made for y
Setting atom values ...
  1 settings made for z
Setting atom values ...
  1 settings made for y
WARNING: No fixes defined, atoms won't move (../verlet.cpp:55)
PPPM initialization ...
WARNING: Using polynomial approximation for long-range coulomb (../kspace.cpp:316)
  G vector (1/distance) = 0.387869
  grid = 8 40 40
  stencil order = 5
  estimated absolute RMS force accuracy = 0.00123919
  estimated relative force accuracy = 8.60569e-05
  using double precision FFTs
  3d grid and FFT values/proc = 37553 12800
Setting up Verlet run ...
  Unit style    : metal
  Current step  : 11
  Time step     : 0.001
Memory usage per processor = 7.51143 Mbytes
Step Temp E_pair E_mol TotEng Press 
      11            0   -14432.197            0   -14432.197    801456.59 
Loop time of 1.19209e-06 on 1 procs for 0 steps with 800 atoms

0.0% CPU use with 1 MPI tasks x 1 OpenMP threads
not skipped
-14427.3300805464 -14432.1969092225
WARNING: No fixes defined, atoms won't move (../verlet.cpp:55)
PPPM initialization ...
WARNING: Using polynomial approximation for long-range coulomb (../kspace.cpp:316)
  G vector (1/distance) = 0.387869
  grid = 8 40 40
  stencil order = 5
  estimated absolute RMS force accuracy = 0.00123919
  estimated relative force accuracy = 8.60569e-05
  using double precision FFTs
  3d grid and FFT values/proc = 37553 12800
Setting up Verlet run ...
  Unit style    : metal
  Current step  : 11
  Time step     : 0.001
Memory usage per processor = 7.51143 Mbytes
Step Temp E_pair E_mol TotEng Press 
      11            0   -14432.197            0   -14432.197    801456.59 
      12            0   -14432.197            0   -14432.197    801456.59 
Loop time of 0.0219741 on 1 procs for 1 steps with 800 atoms

109.2% CPU use with 1 MPI tasks x 1 OpenMP threads
-14432.1969092225 0.026
Setting atom values ...
  1 settings made for z
Setting atom values ...
  1 settings made for y
Setting atom values ...
  1 settings made for z
Setting atom values ...
  1 settings made for y
WARNING: No fixes defined, atoms won't move (../verlet.cpp:55)
PPPM initialization ...
WARNING: Using polynomial approximation for long-range coulomb (../kspace.cpp:316)
  G vector (1/distance) = 0.387869
  grid = 8 40 40
  stencil order = 5
  estimated absolute RMS force accuracy = 0.00123919
  estimated relative force accuracy = 8.60569e-05
  using double precision FFTs
  3d grid and FFT values/proc = 37553 12800
Setting up Verlet run ...
  Unit style    : metal
  Current step  : 12
  Time step     : 0.001
Memory usage per processor = 7.51143 Mbytes
Step Temp E_pair E_mol TotEng Press 
      12            0   -14430.741            0   -14430.741    801436.58 
Loop time of 9.53674e-07 on 1 procs for 0 steps with 800 atoms

0.0% CPU use with 1 MPI tasks x 1 OpenMP threads
not skipped
Setting atom values ...
  1 settings made for z
Setting atom values ...
  1 settings made for y
Setting atom values ...
  1 settings made for z
Setting atom values ...
  1 settings made for y
WARNING: No fixes defined, atoms won't move (../verlet.cpp:55)
PPPM initialization ...
WARNING: Using polynomial approximation for long-range coulomb (../kspace.cpp:316)
  G vector (1/distance) = 0.387869
  grid = 8 40 40
  stencil order = 5
  estimated absolute RMS force accuracy = 0.00123919
  estimated relative force accuracy = 8.60569e-05
  using double precision FFTs
  3d grid and FFT values/proc = 37553 12800
Setting up Verlet run ...
  Unit style    : metal
  Current step  : 12
  Time step     : 0.001
Memory usage per processor = 7.51143 Mbytes
Step Temp E_pair E_mol TotEng Press 
      12            0   -14432.197            0   -14432.197    801456.59 
      13            0   -14432.197            0   -14432.197    801456.59 
Loop time of 0.0219231 on 1 procs for 1 steps with 800 atoms

91.2% CPU use with 1 MPI tasks x 1 OpenMP threads
-14432.1969092225 0.026
Setting atom values ...
  1 settings made for z
Setting atom values ...
  1 settings made for y
Setting atom values ...
  1 settings made for z
Setting atom values ...
  1 settings made for y
WARNING: No fixes defined, atoms won't move (../verlet.cpp:55)
PPPM initialization ...
WARNING: Using polynomial approximation for long-range coulomb (../kspace.cpp:316)
  G vector (1/distance) = 0.387869
  grid = 8 40 40
  stencil order = 5
  estimated absolute RMS force accuracy = 0.00123919
  estimated relative force accuracy = 8.60569e-05
  using double precision FFTs
  3d grid and FFT values/proc = 37553 12800
Setting up Verlet run ...
  Unit style    : metal
  Current step  : 13
  Time step     : 0.001
Memory usage per processor = 7.51143 Mbytes
Step Temp E_pair E_mol TotEng Press 
      13            0    -14430.92            0    -14430.92    802642.08 
Loop time of 9.53674e-07 on 1 procs for 0 steps with 800 atoms

0.0% CPU use with 1 MPI tasks x 1 OpenMP threads
not skipped
Setting atom values ...
  1 settings made for z
Setting atom values ...
  1 settings made for y
Setting atom values ...
  1 settings made for z
Setting atom values ...
  1 settings made for y
WARNING: No fixes defined, atoms won't move (../verlet.cpp:55)
PPPM initialization ...
WARNING: Using polynomial approximation for long-range coulomb (../kspace.cpp:316)
  G vector (1/distance) = 0.387869
  grid = 8 40 40
  stencil order = 5
  estimated absolute RMS force accuracy = 0.00123919
  estimated relative force accuracy = 8.60569e-05
  using double precision FFTs
  3d grid and FFT values/proc = 37553 12800
Setting up Verlet run ...
  Unit style    : metal
  Current step  : 13
  Time step     : 0.001
Memory usage per processor = 7.51143 Mbytes
Step Temp E_pair E_mol TotEng Press 
      13            0   -14432.197            0   -14432.197    801456.59 
      14            0   -14432.197            0   -14432.197    801456.59 
Loop time of 0.021826 on 1 procs for 1 steps with 800 atoms

91.6% CPU use with 1 MPI tasks x 1 OpenMP threads
-14432.1969092225 0.026
Setting atom values ...
  1 settings made for z
Setting atom values ...
  1 settings made for y
Setting atom values ...
  1 settings made for z
Setting atom values ...
  1 settings made for y
WARNING: No fixes defined, atoms won't move (../verlet.cpp:55)
PPPM initialization ...
WARNING: Using polynomial approximation for long-range coulomb (../kspace.cpp:316)
  G vector (1/distance) = 0.387869
  grid = 8 40 40
  stencil order = 5
  estimated absolute RMS force accuracy = 0.00123919
  estimated relative force accuracy = 8.60569e-05
  using double precision FFTs
  3d grid and FFT values/proc = 37553 12800
Setting up Verlet run ...
  Unit style    : metal
  Current step  : 14
  Time step     : 0.001
Memory usage per processor = 7.51143 Mbytes
Step Temp E_pair E_mol TotEng Press 
      14            0   -14430.441            0   -14430.441    802026.44 
Loop time of 9.53674e-07 on 1 procs for 0 steps with 800 atoms

0.0% CPU use with 1 MPI tasks x 1 OpenMP threads
not skipped
Setting atom values ...
  1 settings made for z
Setting atom values ...
  1 settings made for y
Setting atom values ...
  1 settings made for z
Setting atom values ...
  1 settings made for y
WARNING: No fixes defined, atoms won't move (../verlet.cpp:55)
PPPM initialization ...
WARNING: Using polynomial approximation for long-range coulomb (../kspace.cpp:316)
  G vector (1/distance) = 0.387869
  grid = 8 40 40
  stencil order = 5
  estimated absolute RMS force accuracy = 0.00123919
  estimated relative force accuracy = 8.60569e-05
  using double precision FFTs
  3d grid and FFT values/proc = 37553 12800
Setting up Verlet run ...
  Unit style    : metal
  Current step  : 14
  Time step     : 0.001
Memory usage per processor = 7.51143 Mbytes
Step Temp E_pair E_mol TotEng Press 
      14            0   -14432.197            0   -14432.197    801456.59 
      15            0   -14432.197            0   -14432.197    801456.59 
Loop time of 0.0217781 on 1 procs for 1 steps with 800 atoms

91.8% CPU use with 1 MPI tasks x 1 OpenMP threads
-14432.1969092225 0.026
Setting atom values ...
  1 settings made for z
Setting atom values ...
  1 settings made for y
Setting atom values ...
  1 settings made for z
Setting atom values ...
  1 settings made for y
WARNING: No fixes defined, atoms won't move (../verlet.cpp:55)
PPPM initialization ...
WARNING: Using polynomial approximation for long-range coulomb (../kspace.cpp:316)
  G vector (1/distance) = 0.387869
  grid = 8 40 40
  stencil order = 5
  estimated absolute RMS force accuracy = 0.00123919
  estimated relative force accuracy = 8.60569e-05
  using double precision FFTs
  3d grid and FFT values/proc = 37553 12800
Setting up Verlet run ...
  Unit style    : metal
  Current step  : 15
  Time step     : 0.001
Memory usage per processor = 7.51143 Mbytes
Step Temp E_pair E_mol TotEng Press 
      15            0   -14429.283            0   -14429.283    802458.74 
Loop time of 9.53674e-07 on 1 procs for 0 steps with 800 atoms

0.0% CPU use with 1 MPI tasks x 1 OpenMP threads
not skipped
Setting atom values ...
  1 settings made for z
Setting atom values ...
  1 settings made for y
Setting atom values ...
  1 settings made for z
Setting atom values ...
  1 settings made for y
WARNING: No fixes defined, atoms won't move (../verlet.cpp:55)
PPPM initialization ...
WARNING: Using polynomial approximation for long-range coulomb (../kspace.cpp:316)
  G vector (1/distance) = 0.387869
  grid = 8 40 40
  stencil order = 5
  estimated absolute RMS force accuracy = 0.00123919
  estimated relative force accuracy = 8.60569e-05
  using double precision FFTs
  3d grid and FFT values/proc = 37553 12800
Setting up Verlet run ...
  Unit style    : metal
  Current step  : 15
  Time step     : 0.001
Memory usage per processor = 7.51143 Mbytes
Step Temp E_pair E_mol TotEng Press 
      15            0   -14432.197            0   -14432.197    801456.59 
      16            0   -14432.197            0   -14432.197    801456.59 
Loop time of 0.0217991 on 1 procs for 1 steps with 800 atoms

91.7% CPU use with 1 MPI tasks x 1 OpenMP threads
-14432.1969092225 0.026
Setting atom values ...
  1 settings made for z
Setting atom values ...
  1 settings made for y
Setting atom values ...
  1 settings made for z
Setting atom values ...
  1 settings made for y
WARNING: No fixes defined, atoms won't move (../verlet.cpp:55)
PPPM initialization ...
WARNING: Using polynomial approximation for long-range coulomb (../kspace.cpp:316)
  G vector (1/distance) = 0.387869
  grid = 8 40 40
  stencil order = 5
  estimated absolute RMS force accuracy = 0.00123919
  estimated relative force accuracy = 8.60569e-05
  using double precision FFTs
  3d grid and FFT values/proc = 37553 12800
Setting up Verlet run ...
  Unit style    : metal
  Current step  : 16
  Time step     : 0.001
Memory usage per processor = 7.51143 Mbytes
Step Temp E_pair E_mol TotEng Press 
      16            0   -14431.519            0   -14431.519     801792.6 
Loop time of 9.53674e-07 on 1 procs for 0 steps with 800 atoms

0.0% CPU use with 1 MPI tasks x 1 OpenMP threads
not skipped
Setting atom values ...
  1 settings made for z
Setting atom values ...
  1 settings made for y
Setting atom values ...
  1 settings made for z
Setting atom values ...
  1 settings made for y
WARNING: No fixes defined, atoms won't move (../verlet.cpp:55)
PPPM initialization ...
WARNING: Using polynomial approximation for long-range coulomb (../kspace.cpp:316)
  G vector (1/distance) = 0.387869
  grid = 8 40 40
  stencil order = 5
  estimated absolute RMS force accuracy = 0.00123919
  estimated relative force accuracy = 8.60569e-05
  using double precision FFTs
  3d grid and FFT values/proc = 37553 12800
Setting up Verlet run ...
  Unit style    : metal
  Current step  : 16
  Time step     : 0.001
Memory usage per processor = 7.51143 Mbytes
Step Temp E_pair E_mol TotEng Press 
      16            0   -14432.197            0   -14432.197    801456.59 
      17            0   -14432.197            0   -14432.197    801456.59 
Loop time of 0.0219121 on 1 procs for 1 steps with 800 atoms

91.3% CPU use with 1 MPI tasks x 1 OpenMP threads
-14432.1969092225 0.026
Setting atom values ...
  1 settings made for z
Setting atom values ...
  1 settings made for y
Setting atom values ...
  1 settings made for z
Setting atom values ...
  1 settings made for y
WARNING: No fixes defined, atoms won't move (../verlet.cpp:55)
PPPM initialization ...
WARNING: Using polynomial approximation for long-range coulomb (../kspace.cpp:316)
  G vector (1/distance) = 0.387869
  grid = 8 40 40
  stencil order = 5
  estimated absolute RMS force accuracy = 0.00123919
  estimated relative force accuracy = 8.60569e-05
  using double precision FFTs
  3d grid and FFT values/proc = 37553 12800
Setting up Verlet run ...
  Unit style    : metal
  Current step  : 17
  Time step     : 0.001
Memory usage per processor = 7.51143 Mbytes
Step Temp E_pair E_mol TotEng Press 
      17            0   -14432.029            0   -14432.029    801470.99 
Loop time of 9.53674e-07 on 1 procs for 0 steps with 800 atoms

0.0% CPU use with 1 MPI tasks x 1 OpenMP threads
not skipped
Setting atom values ...
  1 settings made for z
Setting atom values ...
  1 settings made for y
Setting atom values ...
  1 settings made for z
Setting atom values ...
  1 settings made for y
WARNING: No fixes defined, atoms won't move (../verlet.cpp:55)
PPPM initialization ...
WARNING: Using polynomial approximation for long-range coulomb (../kspace.cpp:316)
  G vector (1/distance) = 0.387869
  grid = 8 40 40
  stencil order = 5
  estimated absolute RMS force accuracy = 0.00123919
  estimated relative force accuracy = 8.60569e-05
  using double precision FFTs
  3d grid and FFT values/proc = 37553 12800
Setting up Verlet run ...
  Unit style    : metal
  Current step  : 17
  Time step     : 0.001
Memory usage per processor = 7.51143 Mbytes
Step Temp E_pair E_mol TotEng Press 
      17            0   -14432.197            0   -14432.197    801456.59 
      18            0   -14432.197            0   -14432.197    801456.59 
Loop time of 0.021796 on 1 procs for 1 steps with 800 atoms

91.8% CPU use with 1 MPI tasks x 1 OpenMP threads
-14432.1969092225 0.026
Setting atom values ...
  1 settings made for z
Setting atom values ...
  1 settings made for y
Setting atom values ...
  1 settings made for z
Setting atom values ...
  1 settings made for y
WARNING: No fixes defined, atoms won't move (../verlet.cpp:55)
PPPM initialization ...
WARNING: Using polynomial approximation for long-range coulomb (../kspace.cpp:316)
  G vector (1/distance) = 0.387869
  grid = 8 40 40
  stencil order = 5
  estimated absolute RMS force accuracy = 0.00123919
  estimated relative force accuracy = 8.60569e-05
  using double precision FFTs
  3d grid and FFT values/proc = 37553 12800
Setting up Verlet run ...
  Unit style    : metal
  Current step  : 18
  Time step     : 0.001
Memory usage per processor = 7.51143 Mbytes
Step Temp E_pair E_mol TotEng Press 
      18            0   -14433.955            0   -14433.955    801085.53 
Loop time of 0 on 1 procs for 0 steps with 800 atoms

0.0% CPU use with 1 MPI tasks x 1 OpenMP threads
not skipped
-14432.1969092225 -14433.9553099403
WARNING: No fixes defined, atoms won't move (../verlet.cpp:55)
PPPM initialization ...
WARNING: Using polynomial approximation for long-range coulomb (../kspace.cpp:316)
  G vector (1/distance) = 0.387869
  grid = 8 40 40
  stencil order = 5
  estimated absolute RMS force accuracy = 0.00123919
  estimated relative force accuracy = 8.60569e-05
  using double precision FFTs
  3d grid and FFT values/proc = 37553 12800
Setting up Verlet run ...
  Unit style    : metal
  Current step  : 18
  Time step     : 0.001
Memory usage per processor = 7.51143 Mbytes
Step Temp E_pair E_mol TotEng Press 
      18            0   -14433.955            0   -14433.955    801085.53 
      19            0   -14433.955            0   -14433.955    801085.53 
Loop time of 0.021944 on 1 procs for 1 steps with 800 atoms

91.1% CPU use with 1 MPI tasks x 1 OpenMP threads
-14433.9553099403 0.026
Setting atom values ...
  1 settings made for z
Setting atom values ...
  1 settings made for y
Setting atom values ...
  1 settings made for z
Setting atom values ...
  1 settings made for y
WARNING: No fixes defined, atoms won't move (../verlet.cpp:55)
PPPM initialization ...
WARNING: Using polynomial approximation for long-range coulomb (../kspace.cpp:316)
  G vector (1/distance) = 0.387869
  grid = 8 40 40
  stencil order = 5
  estimated absolute RMS force accuracy = 0.00123919
  estimated relative force accuracy = 8.60569e-05
  using double precision FFTs
  3d grid and FFT values/proc = 37553 12800
Setting up Verlet run ...
  Unit style    : metal
  Current step  : 19
  Time step     : 0.001
Memory usage per processor = 7.51143 Mbytes
Step Temp E_pair E_mol TotEng Press 
      19            0   -14433.894            0   -14433.894    801342.08 
Loop time of 9.53674e-07 on 1 procs for 0 steps with 800 atoms

0.0% CPU use with 1 MPI tasks x 1 OpenMP threads
not skipped
Setting atom values ...
  1 settings made for z
Setting atom values ...
  1 settings made for y
Setting atom values ...
  1 settings made for z
Setting atom values ...
  1 settings made for y
WARNING: No fixes defined, atoms won't move (../verlet.cpp:55)
PPPM initialization ...
WARNING: Using polynomial approximation for long-range coulomb (../kspace.cpp:316)
  G vector (1/distance) = 0.387869
  grid = 8 40 40
  stencil order = 5
  estimated absolute RMS force accuracy = 0.00123919
  estimated relative force accuracy = 8.60569e-05
  using double precision FFTs
  3d grid and FFT values/proc = 37553 12800
Setting up Verlet run ...
  Unit style    : metal
  Current step  : 19
  Time step     : 0.001
Memory usage per processor = 7.51143 Mbytes
Step Temp E_pair E_mol TotEng Press 
      19            0   -14433.955            0   -14433.955    801085.53 
      20            0   -14433.955            0   -14433.955    801085.53 
Loop time of 0.0220311 on 1 procs for 1 steps with 800 atoms

108.9% CPU use with 1 MPI tasks x 1 OpenMP threads
-14433.9553099403 0.026
Setting atom values ...
  1 settings made for z
Setting atom values ...
  1 settings made for y
Setting atom values ...
  1 settings made for z
Setting atom values ...
  1 settings made for y
WARNING: No fixes defined, atoms won't move (../verlet.cpp:55)
PPPM initialization ...
WARNING: Using polynomial approximation for long-range coulomb (../kspace.cpp:316)
  G vector (1/distance) = 0.387869
  grid = 8 40 40
  stencil order = 5
  estimated absolute RMS force accuracy = 0.00123919
  estimated relative force accuracy = 8.60569e-05
  using double precision FFTs
  3d grid and FFT values/proc = 37553 12800
Setting up Verlet run ...
  Unit style    : metal
  Current step  : 20
  Time step     : 0.001
Memory usage per processor = 7.51143 Mbytes
Step Temp E_pair E_mol TotEng Press 
      20            0   -14428.761            0   -14428.761    803573.26 
Loop time of 9.53674e-07 on 1 procs for 0 steps with 800 atoms

0.0% CPU use with 1 MPI tasks x 1 OpenMP threads
not skipped
Setting atom values ...
  1 settings made for z
Setting atom values ...
  1 settings made for y
Setting atom values ...
  1 settings made for z
Setting atom values ...
  1 settings made for y
WARNING: No fixes defined, atoms won't move (../verlet.cpp:55)
PPPM initialization ...
WARNING: Using polynomial approximation for long-range coulomb (../kspace.cpp:316)
  G vector (1/distance) = 0.387869
  grid = 8 40 40
  stencil order = 5
  estimated absolute RMS force accuracy = 0.00123919
  estimated relative force accuracy = 8.60569e-05
  using double precision FFTs
  3d grid and FFT values/proc = 37553 12800
Setting up Verlet run ...
  Unit style    : metal
  Current step  : 20
  Time step     : 0.001
Memory usage per processor = 7.51143 Mbytes
Step Temp E_pair E_mol TotEng Press 
      20            0   -14433.955            0   -14433.955    801085.53 
      21            0   -14433.955            0   -14433.955    801085.53 
Loop time of 0.0220451 on 1 procs for 1 steps with 800 atoms

108.9% CPU use with 1 MPI tasks x 1 OpenMP threads
-14433.9553099403 0.026
Setting atom values ...
  1 settings made for z
Setting atom values ...
  1 settings made for y
Setting atom values ...
  1 settings made for z
Setting atom values ...
  1 settings made for y
WARNING: No fixes defined, atoms won't move (../verlet.cpp:55)
PPPM initialization ...
WARNING: Using polynomial approximation for long-range coulomb (../kspace.cpp:316)
  G vector (1/distance) = 0.387869
  grid = 8 40 40
  stencil order = 5
  estimated absolute RMS force accuracy = 0.00123919
  estimated relative force accuracy = 8.60569e-05
  using double precision FFTs
  3d grid and FFT values/proc = 37553 12800
Setting up Verlet run ...
  Unit style    : metal
  Current step  : 21
  Time step     : 0.001
Memory usage per processor = 7.51143 Mbytes
Step Temp E_pair E_mol TotEng Press 
      21            0   -14431.449            0   -14431.449    801494.92 
Loop time of 9.53674e-07 on 1 procs for 0 steps with 800 atoms

0.0% CPU use with 1 MPI tasks x 1 OpenMP threads
not skipped
Setting atom values ...
  1 settings made for z
Setting atom values ...
  1 settings made for y
Setting atom values ...
  1 settings made for z
Setting atom values ...
  1 settings made for y
WARNING: No fixes defined, atoms won't move (../verlet.cpp:55)
PPPM initialization ...
WARNING: Using polynomial approximation for long-range coulomb (../kspace.cpp:316)
  G vector (1/distance) = 0.387869
  grid = 8 40 40
  stencil order = 5
  estimated absolute RMS force accuracy = 0.00123919
  estimated relative force accuracy = 8.60569e-05
  using double precision FFTs
  3d grid and FFT values/proc = 37553 12800
Setting up Verlet run ...
  Unit style    : metal
  Current step  : 21
  Time step     : 0.001
Memory usage per processor = 7.51143 Mbytes
Step Temp E_pair E_mol TotEng Press 
      21            0   -14433.955            0   -14433.955    801085.53 
      22            0   -14433.955            0   -14433.955    801085.53 
Loop time of 0.0218039 on 1 procs for 1 steps with 800 atoms

91.7% CPU use with 1 MPI tasks x 1 OpenMP threads
-14433.9553099403 0.026
Setting atom values ...
  1 settings made for z
Setting atom values ...
  1 settings made for y
Setting atom values ...
  1 settings made for z
Setting atom values ...
  1 settings made for y
WARNING: No fixes defined, atoms won't move (../verlet.cpp:55)
PPPM initialization ...
WARNING: Using polynomial approximation for long-range coulomb (../kspace.cpp:316)
  G vector (1/distance) = 0.387869
  grid = 8 40 40
  stencil order = 5
  estimated absolute RMS force accuracy = 0.00123919
  estimated relative force accuracy = 8.60569e-05
  using double precision FFTs
  3d grid and FFT values/proc = 37553 12800
Setting up Verlet run ...
  Unit style    : metal
  Current step  : 22
  Time step     : 0.001
Memory usage per processor = 7.51143 Mbytes
Step Temp E_pair E_mol TotEng Press 
      22            0    -14428.58            0    -14428.58    803284.96 
Loop time of 9.53674e-07 on 1 procs for 0 steps with 800 atoms

0.0% CPU use with 1 MPI tasks x 1 OpenMP threads
not skipped
Setting atom values ...
  1 settings made for z
Setting atom values ...
  1 settings made for y
Setting atom values ...
  1 settings made for z
Setting atom values ...
  1 settings made for y
WARNING: No fixes defined, atoms won't move (../verlet.cpp:55)
PPPM initialization ...
WARNING: Using polynomial approximation for long-range coulomb (../kspace.cpp:316)
  G vector (1/distance) = 0.387869
  grid = 8 40 40
  stencil order = 5
  estimated absolute RMS force accuracy = 0.00123919
  estimated relative force accuracy = 8.60569e-05
  using double precision FFTs
  3d grid and FFT values/proc = 37553 12800
Setting up Verlet run ...
  Unit style    : metal
  Current step  : 22
  Time step     : 0.001
Memory usage per processor = 7.51143 Mbytes
Step Temp E_pair E_mol TotEng Press 
      22            0   -14433.955            0   -14433.955    801085.53 
      23            0   -14433.955            0   -14433.955    801085.53 
Loop time of 0.0220931 on 1 procs for 1 steps with 800 atoms

90.5% CPU use with 1 MPI tasks x 1 OpenMP threads
-14433.9553099403 0.026
Setting atom values ...
  1 settings made for z
Setting atom values ...
  1 settings made for y
Setting atom values ...
  1 settings made for z
Setting atom values ...
  1 settings made for y
WARNING: No fixes defined, atoms won't move (../verlet.cpp:55)
PPPM initialization ...
WARNING: Using polynomial approximation for long-range coulomb (../kspace.cpp:316)
  G vector (1/distance) = 0.387869
  grid = 8 40 40
  stencil order = 5
  estimated absolute RMS force accuracy = 0.00123919
  estimated relative force accuracy = 8.60569e-05
  using double precision FFTs
  3d grid and FFT values/proc = 37553 12800
Setting up Verlet run ...
  Unit style    : metal
  Current step  : 23
  Time step     : 0.001
Memory usage per processor = 7.51143 Mbytes
Step Temp E_pair E_mol TotEng Press 
      23            0   -14444.179            0   -14444.179    798713.97 
Loop time of 9.53674e-07 on 1 procs for 0 steps with 800 atoms

0.0% CPU use with 1 MPI tasks x 1 OpenMP threads
not skipped
-14433.9553099403 -14444.1793850775
WARNING: No fixes defined, atoms won't move (../verlet.cpp:55)
PPPM initialization ...
WARNING: Using polynomial approximation for long-range coulomb (../kspace.cpp:316)
  G vector (1/distance) = 0.387869
  grid = 8 40 40
  stencil order = 5
  estimated absolute RMS force accuracy = 0.00123919
  estimated relative force accuracy = 8.60569e-05
  using double precision FFTs
  3d grid and FFT values/proc = 37553 12800
Setting up Verlet run ...
  Unit style    : metal
  Current step  : 23
  Time step     : 0.001
Memory usage per processor = 7.51143 Mbytes
Step Temp E_pair E_mol TotEng Press 
      23            0   -14444.179            0   -14444.179    798713.97 
      24            0   -14444.179            0   -14444.179    798713.97 
Loop time of 0.021899 on 1 procs for 1 steps with 800 atoms

109.6% CPU use with 1 MPI tasks x 1 OpenMP threads
-14444.1793850775 0.026
Setting atom values ...
  1 settings made for z
Setting atom values ...
  1 settings made for y
Setting atom values ...
  1 settings made for z
Setting atom values ...
  1 settings made for y
WARNING: No fixes defined, atoms won't move (../verlet.cpp:55)
PPPM initialization ...
WARNING: Using polynomial approximation for long-range coulomb (../kspace.cpp:316)
  G vector (1/distance) = 0.387869
  grid = 8 40 40
  stencil order = 5
  estimated absolute RMS force accuracy = 0.00123919
  estimated relative force accuracy = 8.60569e-05
  using double precision FFTs
  3d grid and FFT values/proc = 37553 12800
Setting up Verlet run ...
  Unit style    : metal
  Current step  : 24
  Time step     : 0.001
Memory usage per processor = 7.51143 Mbytes
Step Temp E_pair E_mol TotEng Press 
      24            0   -14441.788            0   -14441.788    799890.03 
Loop time of 1.19209e-06 on 1 procs for 0 steps with 800 atoms

0.0% CPU use with 1 MPI tasks x 1 OpenMP threads
not skipped
Setting atom values ...
  1 settings made for z
Setting atom values ...
  1 settings made for y
Setting atom values ...
  1 settings made for z
Setting atom values ...
  1 settings made for y
WARNING: No fixes defined, atoms won't move (../verlet.cpp:55)
PPPM initialization ...
WARNING: Using polynomial approximation for long-range coulomb (../kspace.cpp:316)
  G vector (1/distance) = 0.387869
  grid = 8 40 40
  stencil order = 5
  estimated absolute RMS force accuracy = 0.00123919
  estimated relative force accuracy = 8.60569e-05
  using double precision FFTs
  3d grid and FFT values/proc = 37553 12800
Setting up Verlet run ...
  Unit style    : metal
  Current step  : 24
  Time step     : 0.001
Memory usage per processor = 7.51143 Mbytes
Step Temp E_pair E_mol TotEng Press 
      24            0   -14444.179            0   -14444.179    798713.97 
      25            0   -14444.179            0   -14444.179    798713.97 
Loop time of 0.021806 on 1 procs for 1 steps with 800 atoms

110.1% CPU use with 1 MPI tasks x 1 OpenMP threads
-14444.1793850775 0.026
Setting atom values ...
  1 settings made for z
Setting atom values ...
  1 settings made for y
Setting atom values ...
  1 settings made for z
Setting atom values ...
  1 settings made for y
WARNING: No fixes defined, atoms won't move (../verlet.cpp:55)
PPPM initialization ...
WARNING: Using polynomial approximation for long-range coulomb (../kspace.cpp:316)
  G vector (1/distance) = 0.387869
  grid = 8 40 40
  stencil order = 5
  estimated absolute RMS force accuracy = 0.00123919
  estimated relative force accuracy = 8.60569e-05
  using double precision FFTs
  3d grid and FFT values/proc = 37553 12800
Setting up Verlet run ...
  Unit style    : metal
  Current step  : 25
  Time step     : 0.001
Memory usage per processor = 7.51143 Mbytes
Step Temp E_pair E_mol TotEng Press 
      25            0   -14442.589            0   -14442.589    799260.66 
Loop time of 9.53674e-07 on 1 procs for 0 steps with 800 atoms

0.0% CPU use with 1 MPI tasks x 1 OpenMP threads
not skipped
Setting atom values ...
  1 settings made for z
Setting atom values ...
  1 settings made for y
Setting atom values ...
  1 settings made for z
Setting atom values ...
  1 settings made for y
WARNING: No fixes defined, atoms won't move (../verlet.cpp:55)
PPPM initialization ...
WARNING: Using polynomial approximation for long-range coulomb (../kspace.cpp:316)
  G vector (1/distance) = 0.387869
  grid = 8 40 40
  stencil order = 5
  estimated absolute RMS force accuracy = 0.00123919
  estimated relative force accuracy = 8.60569e-05
  using double precision FFTs
  3d grid and FFT values/proc = 37553 12800
Setting up Verlet run ...
  Unit style    : metal
  Current step  : 25
  Time step     : 0.001
Memory usage per processor = 7.51143 Mbytes
Step Temp E_pair E_mol TotEng Press 
      25            0   -14444.179            0   -14444.179    798713.97 
      26            0   -14444.179            0   -14444.179    798713.97 
Loop time of 0.023818 on 1 procs for 1 steps with 800 atoms

100.8% CPU use with 1 MPI tasks x 1 OpenMP threads
-14444.1793850775 0.026
Setting atom values ...
  1 settings made for z
Setting atom values ...
  1 settings made for y
Setting atom values ...
  1 settings made for z
Setting atom values ...
  1 settings made for y
WARNING: No fixes defined, atoms won't move (../verlet.cpp:55)
PPPM initialization ...
WARNING: Using polynomial approximation for long-range coulomb (../kspace.cpp:316)
  G vector (1/distance) = 0.387869
  grid = 8 40 40
  stencil order = 5
  estimated absolute RMS force accuracy = 0.00123919
  estimated relative force accuracy = 8.60569e-05
  using double precision FFTs
  3d grid and FFT values/proc = 37553 12800
Setting up Verlet run ...
  Unit style    : metal
  Current step  : 26
  Time step     : 0.001
Memory usage per processor = 7.51143 Mbytes
Step Temp E_pair E_mol TotEng Press 
      26            0    -14444.44            0    -14444.44    798978.23 
Loop time of 9.53674e-07 on 1 procs for 0 steps with 800 atoms

0.0% CPU use with 1 MPI tasks x 1 OpenMP threads
not skipped
-14444.1793850775 -14444.4399407034
WARNING: No fixes defined, atoms won't move (../verlet.cpp:55)
PPPM initialization ...
WARNING: Using polynomial approximation for long-range coulomb (../kspace.cpp:316)
  G vector (1/distance) = 0.387869
  grid = 8 40 40
  stencil order = 5
  estimated absolute RMS force accuracy = 0.00123919
  estimated relative force accuracy = 8.60569e-05
  using double precision FFTs
  3d grid and FFT values/proc = 37553 12800
Setting up Verlet run ...
  Unit style    : metal
  Current step  : 26
  Time step     : 0.001
Memory usage per processor = 7.51143 Mbytes
Step Temp E_pair E_mol TotEng Press 
      26            0    -14444.44            0    -14444.44    798978.23 
      27            0    -14444.44            0    -14444.44    798978.23 
Loop time of 0.0225048 on 1 procs for 1 steps with 800 atoms

88.9% CPU use with 1 MPI tasks x 1 OpenMP threads
-14444.4399407034 0.026
Setting atom values ...
  1 settings made for z
Setting atom values ...
  1 settings made for y
Setting atom values ...
  1 settings made for z
Setting atom values ...
  1 settings made for y
WARNING: No fixes defined, atoms won't move (../verlet.cpp:55)
PPPM initialization ...
WARNING: Using polynomial approximation for long-range coulomb (../kspace.cpp:316)
  G vector (1/distance) = 0.387869
  grid = 8 40 40
  stencil order = 5
  estimated absolute RMS force accuracy = 0.00123919
  estimated relative force accuracy = 8.60569e-05
  using double precision FFTs
  3d grid and FFT values/proc = 37553 12800
Setting up Verlet run ...
  Unit style    : metal
  Current step  : 27
  Time step     : 0.001
Memory usage per processor = 7.51143 Mbytes
Step Temp E_pair E_mol TotEng Press 
      27            0   -14444.801            0   -14444.801    798556.02 
Loop time of 9.53674e-07 on 1 procs for 0 steps with 800 atoms

0.0% CPU use with 1 MPI tasks x 1 OpenMP threads
not skipped
-14444.4399407034 -14444.8013891291
WARNING: No fixes defined, atoms won't move (../verlet.cpp:55)
PPPM initialization ...
WARNING: Using polynomial approximation for long-range coulomb (../kspace.cpp:316)
  G vector (1/distance) = 0.387869
  grid = 8 40 40
  stencil order = 5
  estimated absolute RMS force accuracy = 0.00123919
  estimated relative force accuracy = 8.60569e-05
  using double precision FFTs
  3d grid and FFT values/proc = 37553 12800
Setting up Verlet run ...
  Unit style    : metal
  Current step  : 27
  Time step     : 0.001
Memory usage per processor = 7.51143 Mbytes
Step Temp E_pair E_mol TotEng Press 
      27            0   -14444.801            0   -14444.801    798556.02 
      28            0   -14444.801            0   -14444.801    798556.02 
Loop time of 0.022254 on 1 procs for 1 steps with 800 atoms

107.8% CPU use with 1 MPI tasks x 1 OpenMP threads
-14444.8013891291 0.026
Setting atom values ...
  1 settings made for z
Setting atom values ...
  1 settings made for y
Setting atom values ...
  1 settings made for z
Setting atom values ...
  1 settings made for y
WARNING: No fixes defined, atoms won't move (../verlet.cpp:55)
PPPM initialization ...
WARNING: Using polynomial approximation for long-range coulomb (../kspace.cpp:316)
  G vector (1/distance) = 0.387869
  grid = 8 40 40
  stencil order = 5
  estimated absolute RMS force accuracy = 0.00123919
  estimated relative force accuracy = 8.60569e-05
  using double precision FFTs
  3d grid and FFT values/proc = 37553 12800
Setting up Verlet run ...
  Unit style    : metal
  Current step  : 28
  Time step     : 0.001
Memory usage per processor = 7.51143 Mbytes
Step Temp E_pair E_mol TotEng Press 
      28            0   -14444.648            0   -14444.648    798504.13 
Loop time of 2.14577e-06 on 1 procs for 0 steps with 800 atoms

0.0% CPU use with 1 MPI tasks x 1 OpenMP threads
not skipped
Setting atom values ...
  1 settings made for z
Setting atom values ...
  1 settings made for y
Setting atom values ...
  1 settings made for z
Setting atom values ...
  1 settings made for y
WARNING: No fixes defined, atoms won't move (../verlet.cpp:55)
PPPM initialization ...
WARNING: Using polynomial approximation for long-range coulomb (../kspace.cpp:316)
  G vector (1/distance) = 0.387869
  grid = 8 40 40
  stencil order = 5
  estimated absolute RMS force accuracy = 0.00123919
  estimated relative force accuracy = 8.60569e-05
  using double precision FFTs
  3d grid and FFT values/proc = 37553 12800
Setting up Verlet run ...
  Unit style    : metal
  Current step  : 28
  Time step     : 0.001
Memory usage per processor = 7.51143 Mbytes
Step Temp E_pair E_mol TotEng Press 
      28            0   -14444.801            0   -14444.801    798556.02 
      29            0   -14444.801            0   -14444.801    798556.02 
Loop time of 0.021966 on 1 procs for 1 steps with 800 atoms

109.3% CPU use with 1 MPI tasks x 1 OpenMP threads
-14444.8013891291 0.026
Setting atom values ...
  1 settings made for z
Setting atom values ...
  1 settings made for y
Setting atom values ...
  1 settings made for z
Setting atom values ...
  1 settings made for y
WARNING: No fixes defined, atoms won't move (../verlet.cpp:55)
PPPM initialization ...
WARNING: Using polynomial approximation for long-range coulomb (../kspace.cpp:316)
  G vector (1/distance) = 0.387869
  grid = 8 40 40
  stencil order = 5
  estimated absolute RMS force accuracy = 0.00123919
  estimated relative force accuracy = 8.60569e-05
  using double precision FFTs
  3d grid and FFT values/proc = 37553 12800
Setting up Verlet run ...
  Unit style    : metal
  Current step  : 29
  Time step     : 0.001
Memory usage per processor = 7.51143 Mbytes
Step Temp E_pair E_mol TotEng Press 
      29            0   -14444.927            0   -14444.927     798057.9 
Loop time of 9.53674e-07 on 1 procs for 0 steps with 800 atoms

0.0% CPU use with 1 MPI tasks x 1 OpenMP threads
not skipped
-14444.8013891291 -14444.9271805249
WARNING: No fixes defined, atoms won't move (../verlet.cpp:55)
PPPM initialization ...
WARNING: Using polynomial approximation for long-range coulomb (../kspace.cpp:316)
  G vector (1/distance) = 0.387869
  grid = 8 40 40
  stencil order = 5
  estimated absolute RMS force accuracy = 0.00123919
  estimated relative force accuracy = 8.60569e-05
  using double precision FFTs
  3d grid and FFT values/proc = 37553 12800
Setting up Verlet run ...
  Unit style    : metal
  Current step  : 29
  Time step     : 0.001
Memory usage per processor = 7.51143 Mbytes
Step Temp E_pair E_mol TotEng Press 
      29            0   -14444.927            0   -14444.927     798057.9 
      30            0   -14444.927            0   -14444.927     798057.9 
Loop time of 0.0219228 on 1 procs for 1 steps with 800 atoms

109.5% CPU use with 1 MPI tasks x 1 OpenMP threads
-14444.9271805249 0.026
Setting atom values ...
  1 settings made for z
Setting atom values ...
  1 settings made for y
Setting atom values ...
  1 settings made for z
Setting atom values ...
  1 settings made for y
WARNING: No fixes defined, atoms won't move (../verlet.cpp:55)
PPPM initialization ...
WARNING: Using polynomial approximation for long-range coulomb (../kspace.cpp:316)
  G vector (1/distance) = 0.387869
  grid = 8 40 40
  stencil order = 5
  estimated absolute RMS force accuracy = 0.00123919
  estimated relative force accuracy = 8.60569e-05
  using double precision FFTs
  3d grid and FFT values/proc = 37553 12800
Setting up Verlet run ...
  Unit style    : metal
  Current step  : 30
  Time step     : 0.001
Memory usage per processor = 7.51143 Mbytes
Step Temp E_pair E_mol TotEng Press 
      30            0   -14447.297            0   -14447.297    797341.89 
Loop time of 9.53674e-07 on 1 procs for 0 steps with 800 atoms

0.0% CPU use with 1 MPI tasks x 1 OpenMP threads
not skipped
-14444.9271805249 -14447.2972062333
WARNING: No fixes defined, atoms won't move (../verlet.cpp:55)
PPPM initialization ...
WARNING: Using polynomial approximation for long-range coulomb (../kspace.cpp:316)
  G vector (1/distance) = 0.387869
  grid = 8 40 40
  stencil order = 5
  estimated absolute RMS force accuracy = 0.00123919
  estimated relative force accuracy = 8.60569e-05
  using double precision FFTs
  3d grid and FFT values/proc = 37553 12800
Setting up Verlet run ...
  Unit style    : metal
  Current step  : 30
  Time step     : 0.001
Memory usage per processor = 7.51143 Mbytes
Step Temp E_pair E_mol TotEng Press 
      30            0   -14447.297            0   -14447.297    797341.89 
      31            0   -14447.297            0   -14447.297    797341.89 
Loop time of 0.0224168 on 1 procs for 1 steps with 800 atoms

89.2% CPU use with 1 MPI tasks x 1 OpenMP threads
-14447.2972062333 0.026
Setting atom values ...
  1 settings made for z
Setting atom values ...
  1 settings made for y
Setting atom values ...
  1 settings made for z
Setting atom values ...
  1 settings made for y
WARNING: No fixes defined, atoms won't move (../verlet.cpp:55)
PPPM initialization ...
WARNING: Using polynomial approximation for long-range coulomb (../kspace.cpp:316)
  G vector (1/distance) = 0.387869
  grid = 8 40 40
  stencil order = 5
  estimated absolute RMS force accuracy = 0.00123919
  estimated relative force accuracy = 8.60569e-05
  using double precision FFTs
  3d grid and FFT values/proc = 37553 12800
Setting up Verlet run ...
  Unit style    : metal
  Current step  : 31
  Time step     : 0.001
Memory usage per processor = 7.51143 Mbytes
Step Temp E_pair E_mol TotEng Press 
      31            0   -14443.443            0   -14443.443    798547.54 
Loop time of 9.53674e-07 on 1 procs for 0 steps with 800 atoms

0.0% CPU use with 1 MPI tasks x 1 OpenMP threads
not skipped
Setting atom values ...
  1 settings made for z
Setting atom values ...
  1 settings made for y
Setting atom values ...
  1 settings made for z
Setting atom values ...
  1 settings made for y
WARNING: No fixes defined, atoms won't move (../verlet.cpp:55)
PPPM initialization ...
WARNING: Using polynomial approximation for long-range coulomb (../kspace.cpp:316)
  G vector (1/distance) = 0.387869
  grid = 8 40 40
  stencil order = 5
  estimated absolute RMS force accuracy = 0.00123919
  estimated relative force accuracy = 8.60569e-05
  using double precision FFTs
  3d grid and FFT values/proc = 37553 12800
Setting up Verlet run ...
  Unit style    : metal
  Current step  : 31
  Time step     : 0.001
Memory usage per processor = 7.51143 Mbytes
Step Temp E_pair E_mol TotEng Press 
      31            0   -14447.297            0   -14447.297    797341.89 
      32            0   -14447.297            0   -14447.297    797341.89 
Loop time of 0.0219669 on 1 procs for 1 steps with 800 atoms

91.0% CPU use with 1 MPI tasks x 1 OpenMP threads
-14447.2972062333 0.026
Setting atom values ...
  1 settings made for z
Setting atom values ...
  1 settings made for y
Setting atom values ...
  1 settings made for z
Setting atom values ...
  1 settings made for y
WARNING: No fixes defined, atoms won't move (../verlet.cpp:55)
PPPM initialization ...
WARNING: Using polynomial approximation for long-range coulomb (../kspace.cpp:316)
  G vector (1/distance) = 0.387869
  grid = 8 40 40
  stencil order = 5
  estimated absolute RMS force accuracy = 0.00123919
  estimated relative force accuracy = 8.60569e-05
  using double precision FFTs
  3d grid and FFT values/proc = 37553 12800
Setting up Verlet run ...
  Unit style    : metal
  Current step  : 32
  Time step     : 0.001
Memory usage per processor = 7.51143 Mbytes
Step Temp E_pair E_mol TotEng Press 
      32            0   -14447.763            0   -14447.763    797126.31 
Loop time of 9.53674e-07 on 1 procs for 0 steps with 800 atoms

0.0% CPU use with 1 MPI tasks x 1 OpenMP threads
not skipped
-14447.2972062333 -14447.7627296507
WARNING: No fixes defined, atoms won't move (../verlet.cpp:55)
PPPM initialization ...
WARNING: Using polynomial approximation for long-range coulomb (../kspace.cpp:316)
  G vector (1/distance) = 0.387869
  grid = 8 40 40
  stencil order = 5
  estimated absolute RMS force accuracy = 0.00123919
  estimated relative force accuracy = 8.60569e-05
  using double precision FFTs
  3d grid and FFT values/proc = 37553 12800
Setting up Verlet run ...
  Unit style    : metal
  Current step  : 32
  Time step     : 0.001
Memory usage per processor = 7.51143 Mbytes
Step Temp E_pair E_mol TotEng Press 
      32            0   -14447.763            0   -14447.763    797126.31 
      33            0   -14447.763            0   -14447.763    797126.31 
Loop time of 0.0221789 on 1 procs for 1 steps with 800 atoms

108.2% CPU use with 1 MPI tasks x 1 OpenMP threads
-14447.7627296507 0.026
Setting atom values ...
  1 settings made for z
Setting atom values ...
  1 settings made for y
Setting atom values ...
  1 settings made for z
Setting atom values ...
  1 settings made for y
WARNING: No fixes defined, atoms won't move (../verlet.cpp:55)
PPPM initialization ...
WARNING: Using polynomial approximation for long-range coulomb (../kspace.cpp:316)
  G vector (1/distance) = 0.387869
  grid = 8 40 40
  stencil order = 5
  estimated absolute RMS force accuracy = 0.00123919
  estimated relative force accuracy = 8.60569e-05
  using double precision FFTs
  3d grid and FFT values/proc = 37553 12800
Setting up Verlet run ...
  Unit style    : metal
  Current step  : 33
  Time step     : 0.001
Memory usage per processor = 7.51143 Mbytes
Step Temp E_pair E_mol TotEng Press 
      33            0   -14444.813            0   -14444.813    798256.49 
Loop time of 9.53674e-07 on 1 procs for 0 steps with 800 atoms

0.0% CPU use with 1 MPI tasks x 1 OpenMP threads
not skipped
Setting atom values ...
  1 settings made for z
Setting atom values ...
  1 settings made for y
Setting atom values ...
  1 settings made for z
Setting atom values ...
  1 settings made for y
WARNING: No fixes defined, atoms won't move (../verlet.cpp:55)
PPPM initialization ...
WARNING: Using polynomial approximation for long-range coulomb (../kspace.cpp:316)
  G vector (1/distance) = 0.387869
  grid = 8 40 40
  stencil order = 5
  estimated absolute RMS force accuracy = 0.00123919
  estimated relative force accuracy = 8.60569e-05
  using double precision FFTs
  3d grid and FFT values/proc = 37553 12800
Setting up Verlet run ...
  Unit style    : metal
  Current step  : 33
  Time step     : 0.001
Memory usage per processor = 7.51143 Mbytes
Step Temp E_pair E_mol TotEng Press 
      33            0   -14447.763            0   -14447.763    797126.31 
      34            0   -14447.763            0   -14447.763    797126.31 
Loop time of 0.0219429 on 1 procs for 1 steps with 800 atoms

109.4% CPU use with 1 MPI tasks x 1 OpenMP threads
-14447.7627296507 0.026
Setting atom values ...
  1 settings made for z
Setting atom values ...
  1 settings made for y
Setting atom values ...
  1 settings made for z
Setting atom values ...
  1 settings made for y
WARNING: No fixes defined, atoms won't move (../verlet.cpp:55)
PPPM initialization ...
WARNING: Using polynomial approximation for long-range coulomb (../kspace.cpp:316)
  G vector (1/distance) = 0.387869
  grid = 8 40 40
  stencil order = 5
  estimated absolute RMS force accuracy = 0.00123919
  estimated relative force accuracy = 8.60569e-05
  using double precision FFTs
  3d grid and FFT values/proc = 37553 12800
Setting up Verlet run ...
  Unit style    : metal
  Current step  : 34
  Time step     : 0.001
Memory usage per processor = 7.51143 Mbytes
Step Temp E_pair E_mol TotEng Press 
      34            0   -14441.971            0   -14441.971     799261.5 
Loop time of 9.53674e-07 on 1 procs for 0 steps with 800 atoms

0.0% CPU use with 1 MPI tasks x 1 OpenMP threads
not skipped
Setting atom values ...
  1 settings made for z
Setting atom values ...
  1 settings made for y
Setting atom values ...
  1 settings made for z
Setting atom values ...
  1 settings made for y
WARNING: No fixes defined, atoms won't move (../verlet.cpp:55)
PPPM initialization ...
WARNING: Using polynomial approximation for long-range coulomb (../kspace.cpp:316)
  G vector (1/distance) = 0.387869
  grid = 8 40 40
  stencil order = 5
  estimated absolute RMS force accuracy = 0.00123919
  estimated relative force accuracy = 8.60569e-05
  using double precision FFTs
  3d grid and FFT values/proc = 37553 12800
Setting up Verlet run ...
  Unit style    : metal
  Current step  : 34
  Time step     : 0.001
Memory usage per processor = 7.51143 Mbytes
Step Temp E_pair E_mol TotEng Press 
      34            0   -14447.763            0   -14447.763    797126.31 
      35            0   -14447.763            0   -14447.763    797126.31 
Loop time of 0.0218482 on 1 procs for 1 steps with 800 atoms

109.8% CPU use with 1 MPI tasks x 1 OpenMP threads
-14447.7627296507 0.026
Setting atom values ...
  1 settings made for z
Setting atom values ...
  1 settings made for y
Setting atom values ...
  1 settings made for z
Setting atom values ...
  1 settings made for y
WARNING: No fixes defined, atoms won't move (../verlet.cpp:55)
PPPM initialization ...
WARNING: Using polynomial approximation for long-range coulomb (../kspace.cpp:316)
  G vector (1/distance) = 0.387869
  grid = 8 40 40
  stencil order = 5
  estimated absolute RMS force accuracy = 0.00123919
  estimated relative force accuracy = 8.60569e-05
  using double precision FFTs
  3d grid and FFT values/proc = 37553 12800
Setting up Verlet run ...
  Unit style    : metal
  Current step  : 35
  Time step     : 0.001
Memory usage per processor = 7.51143 Mbytes
Step Temp E_pair E_mol TotEng Press 
      35            0   -14448.348            0   -14448.348     796695.2 
Loop time of 9.53674e-07 on 1 procs for 0 steps with 800 atoms

0.0% CPU use with 1 MPI tasks x 1 OpenMP threads
not skipped
-14447.7627296507 -14448.3479306986
WARNING: No fixes defined, atoms won't move (../verlet.cpp:55)
PPPM initialization ...
WARNING: Using polynomial approximation for long-range coulomb (../kspace.cpp:316)
  G vector (1/distance) = 0.387869
  grid = 8 40 40
  stencil order = 5
  estimated absolute RMS force accuracy = 0.00123919
  estimated relative force accuracy = 8.60569e-05
  using double precision FFTs
  3d grid and FFT values/proc = 37553 12800
Setting up Verlet run ...
  Unit style    : metal
  Current step  : 35
  Time step     : 0.001
Memory usage per processor = 7.51143 Mbytes
Step Temp E_pair E_mol TotEng Press 
      35            0   -14448.348            0   -14448.348     796695.2 
      36            0   -14448.348            0   -14448.348     796695.2 
Loop time of 0.021775 on 1 procs for 1 steps with 800 atoms

110.2% CPU use with 1 MPI tasks x 1 OpenMP threads
-14448.3479306986 0.026
Setting atom values ...
  1 settings made for z
Setting atom values ...
  1 settings made for y
Setting atom values ...
  1 settings made for z
Setting atom values ...
  1 settings made for y
WARNING: No fixes defined, atoms won't move (../verlet.cpp:55)
PPPM initialization ...
WARNING: Using polynomial approximation for long-range coulomb (../kspace.cpp:316)
  G vector (1/distance) = 0.387869
  grid = 8 40 40
  stencil order = 5
  estimated absolute RMS force accuracy = 0.00123919
  estimated relative force accuracy = 8.60569e-05
  using double precision FFTs
  3d grid and FFT values/proc = 37553 12800
Setting up Verlet run ...
  Unit style    : metal
  Current step  : 36
  Time step     : 0.001
Memory usage per processor = 7.51143 Mbytes
Step Temp E_pair E_mol TotEng Press 
      36            0   -14447.628            0   -14447.628    796691.28 
Loop time of 9.53674e-07 on 1 procs for 0 steps with 800 atoms

0.0% CPU use with 1 MPI tasks x 1 OpenMP threads
not skipped
Setting atom values ...
  1 settings made for z
Setting atom values ...
  1 settings made for y
Setting atom values ...
  1 settings made for z
Setting atom values ...
  1 settings made for y
WARNING: No fixes defined, atoms won't move (../verlet.cpp:55)
PPPM initialization ...
WARNING: Using polynomial approximation for long-range coulomb (../kspace.cpp:316)
  G vector (1/distance) = 0.387869
  grid = 8 40 40
  stencil order = 5
  estimated absolute RMS force accuracy = 0.00123919
  estimated relative force accuracy = 8.60569e-05
  using double precision FFTs
  3d grid and FFT values/proc = 37553 12800
Setting up Verlet run ...
  Unit style    : metal
  Current step  : 36
  Time step     : 0.001
Memory usage per processor = 7.51143 Mbytes
Step Temp E_pair E_mol TotEng Press 
      36            0   -14448.348            0   -14448.348     796695.2 
      37            0   -14448.348            0   -14448.348     796695.2 
Loop time of 0.0220819 on 1 procs for 1 steps with 800 atoms

108.7% CPU use with 1 MPI tasks x 1 OpenMP threads
-14448.3479306986 0.026
Setting atom values ...
  1 settings made for z
Setting atom values ...
  1 settings made for y
Setting atom values ...
  1 settings made for z
Setting atom values ...
  1 settings made for y
WARNING: No fixes defined, atoms won't move (../verlet.cpp:55)
PPPM initialization ...
WARNING: Using polynomial approximation for long-range coulomb (../kspace.cpp:316)
  G vector (1/distance) = 0.387869
  grid = 8 40 40
  stencil order = 5
  estimated absolute RMS force accuracy = 0.00123919
  estimated relative force accuracy = 8.60569e-05
  using double precision FFTs
  3d grid and FFT values/proc = 37553 12800
Setting up Verlet run ...
  Unit style    : metal
  Current step  : 37
  Time step     : 0.001
Memory usage per processor = 7.51143 Mbytes
Step Temp E_pair E_mol TotEng Press 
      37            0   -14453.642            0   -14453.642    795243.31 
Loop time of 1.19209e-06 on 1 procs for 0 steps with 800 atoms

0.0% CPU use with 1 MPI tasks x 1 OpenMP threads
not skipped
-14448.3479306986 -14453.6419272135
WARNING: No fixes defined, atoms won't move (../verlet.cpp:55)
PPPM initialization ...
WARNING: Using polynomial approximation for long-range coulomb (../kspace.cpp:316)
  G vector (1/distance) = 0.387869
  grid = 8 40 40
  stencil order = 5
  estimated absolute RMS force accuracy = 0.00123919
  estimated relative force accuracy = 8.60569e-05
  using double precision FFTs
  3d grid and FFT values/proc = 37553 12800
Setting up Verlet run ...
  Unit style    : metal
  Current step  : 37
  Time step     : 0.001
Memory usage per processor = 7.51143 Mbytes
Step Temp E_pair E_mol TotEng Press 
      37            0   -14453.642            0   -14453.642    795243.31 
      38            0   -14453.642            0   -14453.642    795243.31 
Loop time of 0.0222549 on 1 procs for 1 steps with 800 atoms

107.8% CPU use with 1 MPI tasks x 1 OpenMP threads
-14453.6419272135 0.026
Setting atom values ...
  1 settings made for z
Setting atom values ...
  1 settings made for y
Setting atom values ...
  1 settings made for z
Setting atom values ...
  1 settings made for y
WARNING: No fixes defined, atoms won't move (../verlet.cpp:55)
PPPM initialization ...
WARNING: Using polynomial approximation for long-range coulomb (../kspace.cpp:316)
  G vector (1/distance) = 0.387869
  grid = 8 40 40
  stencil order = 5
  estimated absolute RMS force accuracy = 0.00123919
  estimated relative force accuracy = 8.60569e-05
  using double precision FFTs
  3d grid and FFT values/proc = 37553 12800
Setting up Verlet run ...
  Unit style    : metal
  Current step  : 38
[...]
  using double precision FFTs
  3d grid and FFT values/proc = 37553 12800
Setting up Verlet run ...
  Unit style    : metal
  Current step  : 1551
  Time step     : 0.001
Memory usage per processor = 7.51333 Mbytes
Step Temp E_pair E_mol TotEng Press 
    1551            0   -15433.582            0   -15433.582    443568.17 
    1552            0   -15433.582            0   -15433.582    443568.17 
Loop time of 0.021996 on 1 procs for 1 steps with 800 atoms

109.1% CPU use with 1 MPI tasks x 1 OpenMP threads
-15433.5823213691 0.026
Setting atom values ...
  1 settings made for z
Setting atom values ...
  1 settings made for y
Setting atom values ...
  1 settings made for z
Setting atom values ...
  1 settings made for y
WARNING: No fixes defined, atoms won't move (../verlet.cpp:55)
PPPM initialization ...
WARNING: Using polynomial approximation for long-range coulomb (../kspace.cpp:316)
  G vector (1/distance) = 0.387869
  grid = 8 40 40
  stencil order = 5
  estimated absolute RMS force accuracy = 0.00123919
  estimated relative force accuracy = 8.60569e-05
  using double precision FFTs
  3d grid and FFT values/proc = 37553 12800
Setting up Verlet run ...
  Unit style    : metal
  Current step  : 1552
  Time step     : 0.001
Memory usage per processor = 7.51333 Mbytes
Step Temp E_pair E_mol TotEng Press 
    1552            0   -15432.822            0   -15432.822    443702.23 
Loop time of 9.53674e-07 on 1 procs for 0 steps with 800 atoms

0.0% CPU use with 1 MPI tasks x 1 OpenMP threads
not skipped
Setting atom values ...
  1 settings made for z
Setting atom values ...
  1 settings made for y
Setting atom values ...
  1 settings made for z
Setting atom values ...
  1 settings made for y
WARNING: No fixes defined, atoms won't move (../verlet.cpp:55)
PPPM initialization ...
WARNING: Using polynomial approximation for long-range coulomb (../kspace.cpp:316)
  G vector (1/distance) = 0.387869
  grid = 8 40 40
  stencil order = 5
  estimated absolute RMS force accuracy = 0.00123919
  estimated relative force accuracy = 8.60569e-05
  using double precision FFTs
  3d grid and FFT values/proc = 37553 12800
Setting up Verlet run ...
  Unit style    : metal
  Current step  : 1552
  Time step     : 0.001
Memory usage per processor = 7.51333 Mbytes
Step Temp E_pair E_mol TotEng Press 
    1552            0   -15433.582            0   -15433.582    443568.17 
    1553            0   -15433.582            0   -15433.582    443568.17 
Loop time of 0.021718 on 1 procs for 1 steps with 800 atoms

110.5% CPU use with 1 MPI tasks x 1 OpenMP threads
-15433.5823213691 0.026
WARNING: No fixes defined, atoms won't move (../verlet.cpp:55)
PPPM initialization ...
WARNING: Using polynomial approximation for long-range coulomb (../kspace.cpp:316)
  G vector (1/distance) = 0.387869
  grid = 8 40 40
  stencil order = 5
  estimated absolute RMS force accuracy = 0.00123919
  estimated relative force accuracy = 8.60569e-05
  using double precision FFTs
  3d grid and FFT values/proc = 37553 12800
Setting up Verlet run ...
  Unit style    : metal
  Current step  : 1553
  Time step     : 0.001
Memory usage per processor = 7.51333 Mbytes
Step Temp E_pair E_mol TotEng Press 
    1553            0   -15433.582            0   -15433.582    443568.17 
    1554            0   -15433.582            0   -15433.582    443568.17 
Loop time of 0.0590761 on 1 procs for 1 steps with 800 atoms

101.6% CPU use with 1 MPI tasks x 1 OpenMP threads
Setting atom values ...
  1 settings made for z
Setting atom values ...
  1 settings made for y
Setting atom values ...
  1 settings made for z
Setting atom values ...
  1 settings made for y
WARNING: No fixes defined, atoms won't move (../verlet.cpp:55)
PPPM initialization ...
WARNING: Using polynomial approximation for long-range coulomb (../kspace.cpp:316)
  G vector (1/distance) = 0.387869
  grid = 8 40 40
  stencil order = 5
  estimated absolute RMS force accuracy = 0.00123919
  estimated relative force accuracy = 8.60569e-05
  using double precision FFTs
  3d grid and FFT values/proc = 37553 12800
Setting up Verlet run ...
  Unit style    : metal
  Current step  : 1554
  Time step     : 0.001
Memory usage per processor = 7.51333 Mbytes
Step Temp E_pair E_mol TotEng Press 
    1554            0   -15430.308            0   -15430.308    445121.06 
Loop time of 9.53674e-07 on 1 procs for 0 steps with 800 atoms

0.0% CPU use with 1 MPI tasks x 1 OpenMP threads
not skipped
Setting atom values ...
  1 settings made for z
Setting atom values ...
  1 settings made for y
Setting atom values ...
  1 settings made for z
Setting atom values ...
  1 settings made for y
WARNING: No fixes defined, atoms won't move (../verlet.cpp:55)
PPPM initialization ...
WARNING: Using polynomial approximation for long-range coulomb (../kspace.cpp:316)
  G vector (1/distance) = 0.387869
  grid = 8 40 40
  stencil order = 5
  estimated absolute RMS force accuracy = 0.00123919
  estimated relative force accuracy = 8.60569e-05
  using double precision FFTs
  3d grid and FFT values/proc = 37553 12800
Setting up Verlet run ...
  Unit style    : metal
  Current step  : 1554
  Time step     : 0.001
Memory usage per processor = 7.51333 Mbytes
Step Temp E_pair E_mol TotEng Press 
    1554            0   -15433.582            0   -15433.582    443568.17 
    1555            0   -15433.582            0   -15433.582    443568.17 
Loop time of 0.0217128 on 1 procs for 1 steps with 800 atoms

110.5% CPU use with 1 MPI tasks x 1 OpenMP threads
-15433.5823213691 0.026
WARNING: No fixes defined, atoms won't move (../verlet.cpp:55)
PPPM initialization ...
WARNING: Using polynomial approximation for long-range coulomb (../kspace.cpp:316)
  G vector (1/distance) = 0.387869
  grid = 8 40 40
  stencil order = 5
  estimated absolute RMS force accuracy = 0.00123919
  estimated relative force accuracy = 8.60569e-05
  using double precision FFTs
  3d grid and FFT values/proc = 37553 12800
Setting up Verlet run ...
  Unit style    : metal
  Current step  : 1555
  Time step     : 0.001
Memory usage per processor = 7.51333 Mbytes
Step Temp E_pair E_mol TotEng Press 
    1555            0   -15433.582            0   -15433.582    443568.17 
    1556            0   -15433.582            0   -15433.582    443568.17 
Loop time of 0.0589349 on 1 procs for 1 steps with 800 atoms

95.0% CPU use with 1 MPI tasks x 1 OpenMP threads
Setting atom values ...
  1 settings made for z
Setting atom values ...
  1 settings made for y
Setting atom values ...
  1 settings made for z
Setting atom values ...
  1 settings made for y
WARNING: No fixes defined, atoms won't move (../verlet.cpp:55)
PPPM initialization ...
WARNING: Using polynomial approximation for long-range coulomb (../kspace.cpp:316)
  G vector (1/distance) = 0.387869
  grid = 8 40 40
  stencil order = 5
  estimated absolute RMS force accuracy = 0.00123919
  estimated relative force accuracy = 8.60569e-05
  using double precision FFTs
  3d grid and FFT values/proc = 37553 12800
Setting up Verlet run ...
  Unit style    : metal
  Current step  : 1556
  Time step     : 0.001
Memory usage per processor = 7.51333 Mbytes
Step Temp E_pair E_mol TotEng Press 
    1556            0   -15433.035            0   -15433.035     443106.4 
Loop time of 9.53674e-07 on 1 procs for 0 steps with 800 atoms

0.0% CPU use with 1 MPI tasks x 1 OpenMP threads
not skipped
Setting atom values ...
  1 settings made for z
Setting atom values ...
  1 settings made for y
Setting atom values ...
  1 settings made for z
Setting atom values ...
  1 settings made for y
WARNING: No fixes defined, atoms won't move (../verlet.cpp:55)
PPPM initialization ...
WARNING: Using polynomial approximation for long-range coulomb (../kspace.cpp:316)
  G vector (1/distance) = 0.387869
  grid = 8 40 40
  stencil order = 5
  estimated absolute RMS force accuracy = 0.00123919
  estimated relative force accuracy = 8.60569e-05
  using double precision FFTs
  3d grid and FFT values/proc = 37553 12800
Setting up Verlet run ...
  Unit style    : metal
  Current step  : 1556
  Time step     : 0.001
Memory usage per processor = 7.51333 Mbytes
Step Temp E_pair E_mol TotEng Press 
    1556            0   -15433.582            0   -15433.582    443568.17 
    1557            0   -15433.582            0   -15433.582    443568.17 
Loop time of 0.0217199 on 1 procs for 1 steps with 800 atoms

92.1% CPU use with 1 MPI tasks x 1 OpenMP threads
-15433.5823213691 0.026
WARNING: No fixes defined, atoms won't move (../verlet.cpp:55)
PPPM initialization ...
WARNING: Using polynomial approximation for long-range coulomb (../kspace.cpp:316)
  G vector (1/distance) = 0.387869
  grid = 8 40 40
  stencil order = 5
  estimated absolute RMS force accuracy = 0.00123919
  estimated relative force accuracy = 8.60569e-05
  using double precision FFTs
  3d grid and FFT values/proc = 37553 12800
Setting up Verlet run ...
  Unit style    : metal
  Current step  : 1557
  Time step     : 0.001
Memory usage per processor = 7.51333 Mbytes
Step Temp E_pair E_mol TotEng Press 
    1557            0   -15433.582            0   -15433.582    443568.17 
    1558            0   -15433.582            0   -15433.582    443568.17 
Loop time of 0.0597031 on 1 procs for 1 steps with 800 atoms

100.5% CPU use with 1 MPI tasks x 1 OpenMP threads
Setting atom values ...
  1 settings made for z
Setting atom values ...
  1 settings made for y
Setting atom values ...
  1 settings made for z
Setting atom values ...
  1 settings made for y
WARNING: No fixes defined, atoms won't move (../verlet.cpp:55)
PPPM initialization ...
WARNING: Using polynomial approximation for long-range coulomb (../kspace.cpp:316)
  G vector (1/distance) = 0.387869
  grid = 8 40 40
  stencil order = 5
  estimated absolute RMS force accuracy = 0.00123919
  estimated relative force accuracy = 8.60569e-05
  using double precision FFTs
  3d grid and FFT values/proc = 37553 12800
Setting up Verlet run ...
  Unit style    : metal
  Current step  : 1558
  Time step     : 0.001
Memory usage per processor = 7.51333 Mbytes
Step Temp E_pair E_mol TotEng Press 
    1558            0   -15433.072            0   -15433.072    444629.44 
Loop time of 9.53674e-07 on 1 procs for 0 steps with 800 atoms

0.0% CPU use with 1 MPI tasks x 1 OpenMP threads
not skipped
Setting atom values ...
  1 settings made for z
Setting atom values ...
  1 settings made for y
Setting atom values ...
  1 settings made for z
Setting atom values ...
  1 settings made for y
WARNING: No fixes defined, atoms won't move (../verlet.cpp:55)
PPPM initialization ...
WARNING: Using polynomial approximation for long-range coulomb (../kspace.cpp:316)
  G vector (1/distance) = 0.387869
  grid = 8 40 40
  stencil order = 5
  estimated absolute RMS force accuracy = 0.00123919
  estimated relative force accuracy = 8.60569e-05
  using double precision FFTs
  3d grid and FFT values/proc = 37553 12800
Setting up Verlet run ...
  Unit style    : metal
  Current step  : 1558
  Time step     : 0.001
Memory usage per processor = 7.51333 Mbytes
Step Temp E_pair E_mol TotEng Press 
    1558            0   -15433.582            0   -15433.582    443568.17 
    1559            0   -15433.582            0   -15433.582    443568.17 
Loop time of 0.021718 on 1 procs for 1 steps with 800 atoms

110.5% CPU use with 1 MPI tasks x 1 OpenMP threads
-15433.5823213691 0.026
WARNING: No fixes defined, atoms won't move (../verlet.cpp:55)
PPPM initialization ...
WARNING: Using polynomial approximation for long-range coulomb (../kspace.cpp:316)
  G vector (1/distance) = 0.387869
  grid = 8 40 40
  stencil order = 5
  estimated absolute RMS force accuracy = 0.00123919
  estimated relative force accuracy = 8.60569e-05
  using double precision FFTs
  3d grid and FFT values/proc = 37553 12800
Setting up Verlet run ...
  Unit style    : metal
  Current step  : 1559
  Time step     : 0.001
Memory usage per processor = 7.51333 Mbytes
Step Temp E_pair E_mol TotEng Press 
    1559            0   -15433.582            0   -15433.582    443568.17 
    1560            0   -15433.582            0   -15433.582    443568.17 
Loop time of 0.0586948 on 1 procs for 1 steps with 800 atoms

95.4% CPU use with 1 MPI tasks x 1 OpenMP threads
Setting atom values ...
  1 settings made for z
Setting atom values ...
  1 settings made for y
Setting atom values ...
  1 settings made for z
Setting atom values ...
  1 settings made for y
WARNING: No fixes defined, atoms won't move (../verlet.cpp:55)
PPPM initialization ...
WARNING: Using polynomial approximation for long-range coulomb (../kspace.cpp:316)
  G vector (1/distance) = 0.387869
  grid = 8 40 40
  stencil order = 5
  estimated absolute RMS force accuracy = 0.00123919
  estimated relative force accuracy = 8.60569e-05
  using double precision FFTs
  3d grid and FFT values/proc = 37553 12800
Setting up Verlet run ...
  Unit style    : metal
  Current step  : 1560
  Time step     : 0.001
Memory usage per processor = 7.51333 Mbytes
Step Temp E_pair E_mol TotEng Press 
    1560            0   -15430.521            0   -15430.521    445048.52 
Loop time of 9.53674e-07 on 1 procs for 0 steps with 800 atoms

0.0% CPU use with 1 MPI tasks x 1 OpenMP threads
not skipped
Setting atom values ...
  1 settings made for z
Setting atom values ...
  1 settings made for y
Setting atom values ...
  1 settings made for z
Setting atom values ...
  1 settings made for y
WARNING: No fixes defined, atoms won't move (../verlet.cpp:55)
PPPM initialization ...
WARNING: Using polynomial approximation for long-range coulomb (../kspace.cpp:316)
  G vector (1/distance) = 0.387869
  grid = 8 40 40
  stencil order = 5
  estimated absolute RMS force accuracy = 0.00123919
  estimated relative force accuracy = 8.60569e-05
  using double precision FFTs
  3d grid and FFT values/proc = 37553 12800
Setting up Verlet run ...
  Unit style    : metal
  Current step  : 1560
  Time step     : 0.001
Memory usage per processor = 7.51333 Mbytes
Step Temp E_pair E_mol TotEng Press 
    1560            0   -15433.582            0   -15433.582    443568.17 
    1561            0   -15433.582            0   -15433.582    443568.17 
Loop time of 0.021703 on 1 procs for 1 steps with 800 atoms

92.2% CPU use with 1 MPI tasks x 1 OpenMP threads
-15433.5823213691 0.026
WARNING: No fixes defined, atoms won't move (../verlet.cpp:55)
PPPM initialization ...
WARNING: Using polynomial approximation for long-range coulomb (../kspace.cpp:316)
  G vector (1/distance) = 0.387869
  grid = 8 40 40
  stencil order = 5
  estimated absolute RMS force accuracy = 0.00123919
  estimated relative force accuracy = 8.60569e-05
  using double precision FFTs
  3d grid and FFT values/proc = 37553 12800
Setting up Verlet run ...
  Unit style    : metal
  Current step  : 1561
  Time step     : 0.001
Memory usage per processor = 7.51333 Mbytes
Step Temp E_pair E_mol TotEng Press 
    1561            0   -15433.582            0   -15433.582    443568.17 
    1562            0   -15433.582            0   -15433.582    443568.17 
Loop time of 0.058677 on 1 procs for 1 steps with 800 atoms

95.4% CPU use with 1 MPI tasks x 1 OpenMP threads
Setting atom values ...
  1 settings made for z
Setting atom values ...
  1 settings made for y
Setting atom values ...
  1 settings made for z
Setting atom values ...
  1 settings made for y
WARNING: No fixes defined, atoms won't move (../verlet.cpp:55)
PPPM initialization ...
WARNING: Using polynomial approximation for long-range coulomb (../kspace.cpp:316)
  G vector (1/distance) = 0.387869
  grid = 8 40 40
  stencil order = 5
  estimated absolute RMS force accuracy = 0.00123919
  estimated relative force accuracy = 8.60569e-05
  using double precision FFTs
  3d grid and FFT values/proc = 37553 12800
Setting up Verlet run ...
  Unit style    : metal
  Current step  : 1562
  Time step     : 0.001
Memory usage per processor = 7.51333 Mbytes
Step Temp E_pair E_mol TotEng Press 
    1562            0   -15421.802            0   -15421.802    447144.47 
Loop time of 9.53674e-07 on 1 procs for 0 steps with 800 atoms

0.0% CPU use with 1 MPI tasks x 1 OpenMP threads
not skipped
Setting atom values ...
  1 settings made for z
Setting atom values ...
  1 settings made for y
Setting atom values ...
  1 settings made for z
Setting atom values ...
  1 settings made for y
WARNING: No fixes defined, atoms won't move (../verlet.cpp:55)
PPPM initialization ...
WARNING: Using polynomial approximation for long-range coulomb (../kspace.cpp:316)
  G vector (1/distance) = 0.387869
  grid = 8 40 40
  stencil order = 5
  estimated absolute RMS force accuracy = 0.00123919
  estimated relative force accuracy = 8.60569e-05
  using double precision FFTs
  3d grid and FFT values/proc = 37553 12800
Setting up Verlet run ...
  Unit style    : metal
  Current step  : 1562
  Time step     : 0.001
Memory usage per processor = 7.51333 Mbytes
Step Temp E_pair E_mol TotEng Press 
    1562            0   -15433.582            0   -15433.582    443568.17 
    1563            0   -15433.582            0   -15433.582    443568.17 
Loop time of 0.0219362 on 1 procs for 1 steps with 800 atoms

91.2% CPU use with 1 MPI tasks x 1 OpenMP threads
-15433.5823213691 0.026
WARNING: No fixes defined, atoms won't move (../verlet.cpp:55)
PPPM initialization ...
WARNING: Using polynomial approximation for long-range coulomb (../kspace.cpp:316)
  G vector (1/distance) = 0.387869
  grid = 8 40 40
  stencil order = 5
  estimated absolute RMS force accuracy = 0.00123919
  estimated relative force accuracy = 8.60569e-05
  using double precision FFTs
  3d grid and FFT values/proc = 37553 12800
Setting up Verlet run ...
  Unit style    : metal
  Current step  : 1563
  Time step     : 0.001
Memory usage per processor = 7.51333 Mbytes
Step Temp E_pair E_mol TotEng Press 
    1563            0   -15433.582            0   -15433.582    443568.17 
    1564            0   -15433.582            0   -15433.582    443568.17 
Loop time of 0.0584309 on 1 procs for 1 steps with 800 atoms

102.7% CPU use with 1 MPI tasks x 1 OpenMP threads
WARNING: No fixes defined, atoms won't move (../verlet.cpp:55)
PPPM initialization ...
WARNING: Using polynomial approximation for long-range coulomb (../kspace.cpp:316)
  G vector (1/distance) = 0.387869
  grid = 8 40 40
  stencil order = 5
  estimated absolute RMS force accuracy = 0.00123919
  estimated relative force accuracy = 8.60569e-05
  using double precision FFTs
  3d grid and FFT values/proc = 37553 12800
Setting up Verlet run ...
  Unit style    : metal
  Current step  : 1564
  Time step     : 0.001
Memory usage per processor = 7.51333 Mbytes
Step Temp E_pair E_mol TotEng Press 
    1564            0   -15433.582            0   -15433.582    443568.17 
Loop time of 9.53674e-07 on 1 procs for 0 steps with 800 atoms

0.0% CPU use with 1 MPI tasks x 1 OpenMP threads

MPI task timing breakdown:
Section |  min time  |  avg time  |  max time  |%varavg| %total
---------------------------------------------------------------
Pair    | 0          | 0          | 0          |   0.0 |  0.00
Kspace  | 0          | 0          | 0          |   0.0 |  0.00
Neigh   | 0          | 0          | 0          |   0.0 |  0.00
Comm    | 0          | 0          | 0          |   0.0 |  0.00
Output  | 0          | 0          | 0          |   0.0 |  0.00
Modify  | 0          | 0          | 0          |   0.0 |  0.00
Other   |            | 9.537e-07  |            |       |100.00

Nlocal:    800 ave 800 max 800 min
Histogram: 1 0 0 0 0 0 0 0 0 0
Nghost:    8583 ave 8583 max 8583 min
Histogram: 1 0 0 0 0 0 0 0 0 0
Neighs:    179752 ave 179752 max 179752 min
Histogram: 1 0 0 0 0 0 0 0 0 0

Total # of neighbors = 179752
Ave neighs/atom = 224.69
Neighbor list builds = 0
Dangerous builds = 0

MC stats:
  	neighbor list rebuilds = 0
  	starting energy = -14419.8817876462
  	final energy = -15433.5823213691
  	minimum energy of perfect lattice = -14419.8817876462


Calculation complete
Total wall time: 0:02:18
