        5508
 Atoms. Timestep: 0
 1    0.0000000      -77.921997      -43.804798    
 2    2.1059999      -77.921997      -43.804798    
 2    0.0000000      -75.815994      -43.804798    
 1    2.1059999      -75.815994      -43.804798    
 1    0.0000000      -73.709999      -43.804798    
 2    2.1059999      -73.709999      -43.804798    
 2    0.0000000      -73.709999      -41.698799    
 1    2.1059999      -73.709999      -41.698799    
 1    0.0000000      -71.603996      -41.698799    
 2    2.1059999      -71.603996      -41.698799    
 2    0.0000000      -71.603996      -43.804798    
 1    2.1059999      -71.603996      -43.804798    
 1    0.0000000      -69.498001      -43.804798    
 2    2.1059999      -69.498001      -43.804798    
 2    0.0000000      -71.603996      -39.592796    
 1    2.1059999      -71.603996      -39.592796    
 1    0.0000000      -69.498001      -39.592796    
 2    2.1059999      -69.498001      -39.592796    
 2    0.0000000      -69.498001      -41.698799    
 1    2.1059999      -69.498001      -41.698799    
 1    0.0000000      -67.391998      -41.698799    
 2    2.1059999      -67.391998      -41.698799    
 2    0.0000000      -67.391998      -43.804798    
 1    2.1059999      -67.391998      -43.804798    
 1    0.0000000      -65.285995      -43.804798    
 2    2.1059999      -65.285995      -43.804798    
 1    0.0000000      -67.391998      -37.486797    
 2    2.1059999      -67.391998      -37.486797    
 2    0.0000000      -67.391998      -39.592796    
 1    2.1059999      -67.391998      -39.592796    
 1    0.0000000      -65.285995      -39.592796    
 2    2.1059999      -65.285995      -39.592796    
 2    0.0000000      -65.285995      -41.698799    
 1    2.1059999      -65.285995      -41.698799    
 1    0.0000000      -63.180000      -41.698799    
 2    2.1059999      -63.180000      -41.698799    
 2    0.0000000      -63.180000      -43.804798    
 1    2.1059999      -63.180000      -43.804798    
 1    0.0000000      -61.073997      -43.804798    
 2    2.1059999      -61.073997      -43.804798    
 2    0.0000000      -65.285995      -37.486797    
 1    2.1059999      -65.285995      -37.486797    
 1    0.0000000      -63.180000      -37.486797    
 2    2.1059999      -63.180000      -37.486797    
 2    0.0000000      -63.180000      -39.592796    
 1    2.1059999      -63.180000      -39.592796    
 1    0.0000000      -61.073997      -39.592796    
 2    2.1059999      -61.073997      -39.592796    
 2    0.0000000      -61.073997      -41.698799    
 1    2.1059999      -61.073997      -41.698799    
 1    0.0000000      -58.967999      -41.698799    
 2    2.1059999      -58.967999      -41.698799    
 2    0.0000000      -58.967999      -43.804798    
 1    2.1059999      -58.967999      -43.804798    
 1    0.0000000      -56.862000      -43.804798    
 2    2.1059999      -56.862000      -43.804798    
 2    0.0000000      -63.180000      -35.380798    
 1    2.1059999      -63.180000      -35.380798    
 1    0.0000000      -61.073997      -35.380798    
 2    2.1059999      -61.073997      -35.380798    
 2    0.0000000      -61.073997      -37.486797    
 1    2.1059999      -61.073997      -37.486797    
 1    0.0000000      -58.967999      -37.486797    
 2    2.1059999      -58.967999      -37.486797    
 2    0.0000000      -58.967999      -39.592796    
 1    2.1059999      -58.967999      -39.592796    
 1    0.0000000      -56.862000      -39.592796    
 2    2.1059999      -56.862000      -39.592796    
 2    0.0000000      -56.862000      -41.698799    
 1    2.1059999      -56.862000      -41.698799    
 1    0.0000000      -54.755997      -41.698799    
 2    2.1059999      -54.755997      -41.698799    
 2    0.0000000      -54.755997      -43.804798    
 1    2.1059999      -54.755997      -43.804798    
 1    0.0000000      -52.649998      -43.804798    
 2    2.1059999      -52.649998      -43.804798    
 1    0.0000000      -58.967999      -33.274799    
 2    2.1059999      -58.967999      -33.274799    
 2    0.0000000      -58.967999      -35.380798    
 1    2.1059999      -58.967999      -35.380798    
 1    0.0000000      -56.862000      -35.380798    
 2    2.1059999      -56.862000      -35.380798    
 2    0.0000000      -56.862000      -37.486797    
 1    2.1059999      -56.862000      -37.486797    
 1    0.0000000      -54.755997      -37.486797    
 2    2.1059999      -54.755997      -37.486797    
 2    0.0000000      -54.755997      -39.592796    
 1    2.1059999      -54.755997      -39.592796    
 1    0.0000000      -52.649998      -39.592796    
 2    2.1059999      -52.649998      -39.592796    
 2    0.0000000      -52.649998      -41.698799    
 1    2.1059999      -52.649998      -41.698799    
 1    0.0000000      -50.543999      -41.698799    
 2    2.1059999      -50.543999      -41.698799    
 2    0.0000000      -50.543999      -43.804798    
 1    2.1059999      -50.543999      -43.804798    
 1    0.0000000      -48.438000      -43.804798    
 2    2.1059999      -48.438000      -43.804798    
 2    0.0000000      -56.862000      -33.274799    
 1    2.1059999      -56.862000      -33.274799    
 1    0.0000000      -54.755997      -33.274799    
 2    2.1059999      -54.755997      -33.274799    
 2    0.0000000      -54.755997      -35.380798    
 1    2.1059999      -54.755997      -35.380798    
 1    0.0000000      -52.649998      -35.380798    
 2    2.1059999      -52.649998      -35.380798    
 2    0.0000000      -52.649998      -37.486797    
 1    2.1059999      -52.649998      -37.486797    
 1    0.0000000      -50.543999      -37.486797    
 2    2.1059999      -50.543999      -37.486797    
 2    0.0000000      -50.543999      -39.592796    
 1    2.1059999      -50.543999      -39.592796    
 1    0.0000000      -48.438000      -39.592796    
 2    2.1059999      -48.438000      -39.592796    
 2    0.0000000      -48.438000      -41.698799    
 1    2.1059999      -48.438000      -41.698799    
 1    0.0000000      -46.332001      -41.698799    
 2    2.1059999      -46.332001      -41.698799    
 2    0.0000000      -46.332001      -43.804798    
 1    2.1059999      -46.332001      -43.804798    
 1    0.0000000      -44.225998      -43.804798    
 2    2.1059999      -44.225998      -43.804798    
 2    0.0000000      -54.755997      -31.168798    
 1    2.1059999      -54.755997      -31.168798    
 1    0.0000000      -52.649998      -31.168798    
 2    2.1059999      -52.649998      -31.168798    
 2    0.0000000      -52.649998      -33.274799    
 1    2.1059999      -52.649998      -33.274799    
 1    0.0000000      -50.543999      -33.274799    
 2    2.1059999      -50.543999      -33.274799    
 2    0.0000000      -50.543999      -35.380798    
 1    2.1059999      -50.543999      -35.380798    
 1    0.0000000      -48.438000      -35.380798    
 2    2.1059999      -48.438000      -35.380798    
 2    0.0000000      -48.438000      -37.486797    
 1    2.1059999      -48.438000      -37.486797    
 1    0.0000000      -46.332001      -37.486797    
 2    2.1059999      -46.332001      -37.486797    
 2    0.0000000      -46.332001      -39.592796    
 1    2.1059999      -46.332001      -39.592796    
 1    0.0000000      -44.225998      -39.592796    
 2    2.1059999      -44.225998      -39.592796    
 2    0.0000000      -44.225998      -41.698799    
 1    2.1059999      -44.225998      -41.698799    
 1    0.0000000      -42.119999      -41.698799    
 2    2.1059999      -42.119999      -41.698799    
 2    0.0000000      -42.119999      -43.804798    
 1    2.1059999      -42.119999      -43.804798    
 1    0.0000000      -40.014000      -43.804798    
 2    2.1059999      -40.014000      -43.804798    
 1    0.0000000      -50.543999      -29.062798    
 2    2.1059999      -50.543999      -29.062798    
 2    0.0000000      -50.543999      -31.168798    
 1    2.1059999      -50.543999      -31.168798    
 1    0.0000000      -48.438000      -31.168798    
 2    2.1059999      -48.438000      -31.168798    
 2    0.0000000      -48.438000      -33.274799    
 1    2.1059999      -48.438000      -33.274799    
 1    0.0000000      -46.332001      -33.274799    
 2    2.1059999      -46.332001      -33.274799    
 2    0.0000000      -46.332001      -35.380798    
 1    2.1059999      -46.332001      -35.380798    
 1    0.0000000      -44.225998      -35.380798    
 2    2.1059999      -44.225998      -35.380798    
 2    0.0000000      -44.225998      -37.486797    
 1    2.1059999      -44.225998      -37.486797    
 1    0.0000000      -42.119999      -37.486797    
 2    2.1059999      -42.119999      -37.486797    
 2    0.0000000      -42.119999      -39.592796    
 1    2.1059999      -42.119999      -39.592796    
 1    0.0000000      -40.014000      -39.592796    
 2    2.1059999      -40.014000      -39.592796    
 2    0.0000000      -40.014000      -41.698799    
 1    2.1059999      -40.014000      -41.698799    
 1    0.0000000      -37.907997      -41.698799    
 2    2.1059999      -37.907997      -41.698799    
 2    0.0000000      -37.907997      -43.804798    
 1    2.1059999      -37.907997      -43.804798    
 1    0.0000000      -35.801998      -43.804798    
 2    2.1059999      -35.801998      -43.804798    
 2    0.0000000      -48.438000      -29.062798    
 1    2.1059999      -48.438000      -29.062798    
 1    0.0000000      -46.332001      -29.062798    
 2    2.1059999      -46.332001      -29.062798    
 2    0.0000000      -46.332001      -31.168798    
 1    2.1059999      -46.332001      -31.168798    
 1    0.0000000      -44.225998      -31.168798    
 2    2.1059999      -44.225998      -31.168798    
 2    0.0000000      -44.225998      -33.274799    
 1    2.1059999      -44.225998      -33.274799    
 1    0.0000000      -42.119999      -33.274799    
 2    2.1059999      -42.119999      -33.274799    
 2    0.0000000      -42.119999      -35.380798    
 1    2.1059999      -42.119999      -35.380798    
 1    0.0000000      -40.014000      -35.380798    
 2    2.1059999      -40.014000      -35.380798    
 2    0.0000000      -40.014000      -37.486797    
 1    2.1059999      -40.014000      -37.486797    
 1    0.0000000      -37.907997      -37.486797    
 2    2.1059999      -37.907997      -37.486797    
 2    0.0000000      -37.907997      -39.592796    
 1    2.1059999      -37.907997      -39.592796    
 1    0.0000000      -35.801998      -39.592796    
 2    2.1059999      -35.801998      -39.592796    
 2    0.0000000      -35.801998      -41.698799    
 1    2.1059999      -35.801998      -41.698799    
 1    0.0000000      -33.695999      -41.698799    
 2    2.1059999      -33.695999      -41.698799    
 2    0.0000000      -33.695999      -43.804798    
 1    2.1059999      -33.695999      -43.804798    
 1    0.0000000      -31.590000      -43.804798    
 2    2.1059999      -31.590000      -43.804798    
 2    0.0000000      -46.332001      -26.956799    
 1    2.1059999      -46.332001      -26.956799    
 1    0.0000000      -44.225998      -26.956799    
 2    2.1059999      -44.225998      -26.956799    
 2    0.0000000      -44.225998      -29.062798    
 1    2.1059999      -44.225998      -29.062798    
 1    0.0000000      -42.119999      -29.062798    
 2    2.1059999      -42.119999      -29.062798    
 2    0.0000000      -42.119999      -31.168798    
 1    2.1059999      -42.119999      -31.168798    
 1    0.0000000      -40.014000      -31.168798    
 2    2.1059999      -40.014000      -31.168798    
 2    0.0000000      -40.014000      -33.274799    
 1    2.1059999      -40.014000      -33.274799    
 1    0.0000000      -37.907997      -33.274799    
 2    2.1059999      -37.907997      -33.274799    
 2    0.0000000      -37.907997      -35.380798    
 1    2.1059999      -37.907997      -35.380798    
 1    0.0000000      -35.801998      -35.380798    
 2    2.1059999      -35.801998      -35.380798    
 2    0.0000000      -35.801998      -37.486797    
 1    2.1059999      -35.801998      -37.486797    
 1    0.0000000      -33.695999      -37.486797    
 2    2.1059999      -33.695999      -37.486797    
 2    0.0000000      -33.695999      -39.592796    
 1    2.1059999      -33.695999      -39.592796    
 1    0.0000000      -31.590000      -39.592796    
 2    2.1059999      -31.590000      -39.592796    
 2    0.0000000      -31.590000      -41.698799    
 1    2.1059999      -31.590000      -41.698799    
 1    0.0000000      -29.483999      -41.698799    
 2    2.1059999      -29.483999      -41.698799    
 2    0.0000000      -29.483999      -43.804798    
 1    2.1059999      -29.483999      -43.804798    
 1    0.0000000      -27.377998      -43.804798    
 2    2.1059999      -27.377998      -43.804798    
 1    0.0000000      -42.119999      -24.850800    
 2    2.1059999      -42.119999      -24.850800    
 2    0.0000000      -42.119999      -26.956799    
 1    2.1059999      -42.119999      -26.956799    
 1    0.0000000      -40.014000      -26.956799    
 2    2.1059999      -40.014000      -26.956799    
 2    0.0000000      -40.014000      -29.062798    
 1    2.1059999      -40.014000      -29.062798    
 1    0.0000000      -37.907997      -29.062798    
 2    2.1059999      -37.907997      -29.062798    
 2    0.0000000      -37.907997      -31.168798    
 1    2.1059999      -37.907997      -31.168798    
 1    0.0000000      -35.801998      -31.168798    
 2    2.1059999      -35.801998      -31.168798    
 2    0.0000000      -35.801998      -33.274799    
 1    2.1059999      -35.801998      -33.274799    
 1    0.0000000      -33.695999      -33.274799    
 2    2.1059999      -33.695999      -33.274799    
 2    0.0000000      -33.695999      -35.380798    
 1    2.1059999      -33.695999      -35.380798    
 1    0.0000000      -31.590000      -35.380798    
 2    2.1059999      -31.590000      -35.380798    
 2    0.0000000      -31.590000      -37.486797    
 1    2.1059999      -31.590000      -37.486797    
 1    0.0000000      -29.483999      -37.486797    
 2    2.1059999      -29.483999      -37.486797    
 2    0.0000000      -29.483999      -39.592796    
 1    2.1059999      -29.483999      -39.592796    
 1    0.0000000      -27.377998      -39.592796    
 2    2.1059999      -27.377998      -39.592796    
 2    0.0000000      -27.377998      -41.698799    
 1    2.1059999      -27.377998      -41.698799    
 1    0.0000000      -25.271999      -41.698799    
 2    2.1059999      -25.271999      -41.698799    
 2    0.0000000      -25.271999      -43.804798    
 1    2.1059999      -25.271999      -43.804798    
 1    0.0000000      -23.166000      -43.804798    
 2    2.1059999      -23.166000      -43.804798    
 2    0.0000000      -40.014000      -24.850800    
 1    2.1059999      -40.014000      -24.850800    
 1    0.0000000      -37.907997      -24.850800    
 2    2.1059999      -37.907997      -24.850800    
 2    0.0000000      -37.907997      -26.956799    
 1    2.1059999      -37.907997      -26.956799    
 1    0.0000000      -35.801998      -26.956799    
 2    2.1059999      -35.801998      -26.956799    
 2    0.0000000      -35.801998      -29.062798    
 1    2.1059999      -35.801998      -29.062798    
 1    0.0000000      -33.695999      -29.062798    
 2    2.1059999      -33.695999      -29.062798    
 2    0.0000000      -33.695999      -31.168798    
 1    2.1059999      -33.695999      -31.168798    
 1    0.0000000      -31.590000      -31.168798    
 2    2.1059999      -31.590000      -31.168798    
 2    0.0000000      -31.590000      -33.274799    
 1    2.1059999      -31.590000      -33.274799    
 1    0.0000000      -29.483999      -33.274799    
 2    2.1059999      -29.483999      -33.274799    
 2    0.0000000      -29.483999      -35.380798    
 1    2.1059999      -29.483999      -35.380798    
 1    0.0000000      -27.377998      -35.380798    
 2    2.1059999      -27.377998      -35.380798    
 2    0.0000000      -27.377998      -37.486797    
 1    2.1059999      -27.377998      -37.486797    
 1    0.0000000      -25.271999      -37.486797    
 2    2.1059999      -25.271999      -37.486797    
 2    0.0000000      -25.271999      -39.592796    
 1    2.1059999      -25.271999      -39.592796    
 1    0.0000000      -23.166000      -39.592796    
 2    2.1059999      -23.166000      -39.592796    
 2    0.0000000      -23.166000      -41.698799    
 1    2.1059999      -23.166000      -41.698799    
 1    0.0000000      -21.059999      -41.698799    
 2    2.1059999      -21.059999      -41.698799    
 2    0.0000000      -21.059999      -43.804798    
 1    2.1059999      -21.059999      -43.804798    
 1    0.0000000      -18.953999      -43.804798    
 2    2.1059999      -18.953999      -43.804798    
 2    0.0000000      -37.907997      -22.744799    
 1    2.1059999      -37.907997      -22.744799    
 1    0.0000000      -35.801998      -22.744799    
 2    2.1059999      -35.801998      -22.744799    
 2    0.0000000      -35.801998      -24.850800    
 1    2.1059999      -35.801998      -24.850800    
 1    0.0000000      -33.695999      -24.850800    
 2    2.1059999      -33.695999      -24.850800    
 2    0.0000000      -33.695999      -26.956799    
 1    2.1059999      -33.695999      -26.956799    
 1    0.0000000      -31.590000      -26.956799    
 2    2.1059999      -31.590000      -26.956799    
 2    0.0000000      -31.590000      -29.062798    
 1    2.1059999      -31.590000      -29.062798    
 1    0.0000000      -29.483999      -29.062798    
 2    2.1059999      -29.483999      -29.062798    
 2    0.0000000      -29.483999      -31.168798    
 1    2.1059999      -29.483999      -31.168798    
 1    0.0000000      -27.377998      -31.168798    
 2    2.1059999      -27.377998      -31.168798    
 2    0.0000000      -27.377998      -33.274799    
 1    2.1059999      -27.377998      -33.274799    
 1    0.0000000      -25.271999      -33.274799    
 2    2.1059999      -25.271999      -33.274799    
 2    0.0000000      -25.271999      -35.380798    
 1    2.1059999      -25.271999      -35.380798    
 1    0.0000000      -23.166000      -35.380798    
 2    2.1059999      -23.166000      -35.380798    
 2    0.0000000      -23.166000      -37.486797    
 1    2.1059999      -23.166000      -37.486797    
 1    0.0000000      -21.059999      -37.486797    
 2    2.1059999      -21.059999      -37.486797    
 2    0.0000000      -21.059999      -39.592796    
 1    2.1059999      -21.059999      -39.592796    
 1    0.0000000      -18.953999      -39.592796    
 2    2.1059999      -18.953999      -39.592796    
 2    0.0000000      -18.953999      -41.698799    
 1    2.1059999      -18.953999      -41.698799    
 1    0.0000000      -16.848000      -41.698799    
 2    2.1059999      -16.848000      -41.698799    
 2    0.0000000      -16.848000      -43.804798    
 1    2.1059999      -16.848000      -43.804798    
 1    0.0000000      -14.742000      -43.804798    
 2    2.1059999      -14.742000      -43.804798    
 2    0.0000000      -35.801998      -20.638798    
 1    2.1059999      -35.801998      -20.638798    
 1    0.0000000      -33.695999      -20.638798    
 2    2.1059999      -33.695999      -20.638798    
 2    0.0000000      -33.695999      -22.744799    
 1    2.1059999      -33.695999      -22.744799    
 1    0.0000000      -31.590000      -22.744799    
 2    2.1059999      -31.590000      -22.744799    
 2    0.0000000      -31.590000      -24.850800    
 1    2.1059999      -31.590000      -24.850800    
 1    0.0000000      -29.483999      -24.850800    
 2    2.1059999      -29.483999      -24.850800    
 2    0.0000000      -29.483999      -26.956799    
 1    2.1059999      -29.483999      -26.956799    
 1    0.0000000      -27.377998      -26.956799    
 2    2.1059999      -27.377998      -26.956799    
 2    0.0000000      -27.377998      -29.062798    
 1    2.1059999      -27.377998      -29.062798    
 1    0.0000000      -25.271999      -29.062798    
 2    2.1059999      -25.271999      -29.062798    
 2    0.0000000      -25.271999      -31.168798    
 1    2.1059999      -25.271999      -31.168798    
 1    0.0000000      -23.166000      -31.168798    
 2    2.1059999      -23.166000      -31.168798    
 2    0.0000000      -23.166000      -33.274799    
 1    2.1059999      -23.166000      -33.274799    
 1    0.0000000      -21.059999      -33.274799    
 2    2.1059999      -21.059999      -33.274799    
 2    0.0000000      -21.059999      -35.380798    
 1    2.1059999      -21.059999      -35.380798    
 1    0.0000000      -18.953999      -35.380798    
 2    2.1059999      -18.953999      -35.380798    
 2    0.0000000      -18.953999      -37.486797    
 1    2.1059999      -18.953999      -37.486797    
 1    0.0000000      -16.848000      -37.486797    
 2    2.1059999      -16.848000      -37.486797    
 2    0.0000000      -16.848000      -39.592796    
 1    2.1059999      -16.848000      -39.592796    
 1    0.0000000      -14.742000      -39.592796    
 2    2.1059999      -14.742000      -39.592796    
 2    0.0000000      -14.742000      -41.698799    
 1    2.1059999      -14.742000      -41.698799    
 1    0.0000000      -12.636000      -41.698799    
 2    2.1059999      -12.636000      -41.698799    
 2    0.0000000      -12.636000      -43.804798    
 1    2.1059999      -12.636000      -43.804798    
 1    0.0000000      -10.530000      -43.804798    
 2    2.1059999      -10.530000      -43.804798    
 1    0.0000000      -31.590000      -18.532799    
 2    2.1059999      -31.590000      -18.532799    
 2    0.0000000      -31.590000      -20.638798    
 1    2.1059999      -31.590000      -20.638798    
 1    0.0000000      -29.483999      -20.638798    
 2    2.1059999      -29.483999      -20.638798    
 2    0.0000000      -29.483999      -22.744799    
 1    2.1059999      -29.483999      -22.744799    
 1    0.0000000      -27.377998      -22.744799    
 2    2.1059999      -27.377998      -22.744799    
 2    0.0000000      -27.377998      -24.850800    
 1    2.1059999      -27.377998      -24.850800    
 1    0.0000000      -25.271999      -24.850800    
 2    2.1059999      -25.271999      -24.850800    
 2    0.0000000      -25.271999      -26.956799    
 1    2.1059999      -25.271999      -26.956799    
 1    0.0000000      -23.166000      -26.956799    
 2    2.1059999      -23.166000      -26.956799    
 2    0.0000000      -23.166000      -29.062798    
 1    2.1059999      -23.166000      -29.062798    
 1    0.0000000      -21.059999      -29.062798    
 2    2.1059999      -21.059999      -29.062798    
 2    0.0000000      -21.059999      -31.168798    
 1    2.1059999      -21.059999      -31.168798    
 1    0.0000000      -18.953999      -31.168798    
 2    2.1059999      -18.953999      -31.168798    
 2    0.0000000      -18.953999      -33.274799    
 1    2.1059999      -18.953999      -33.274799    
 1    0.0000000      -16.848000      -33.274799    
 2    2.1059999      -16.848000      -33.274799    
 2    0.0000000      -16.848000      -35.380798    
 1    2.1059999      -16.848000      -35.380798    
 1    0.0000000      -14.742000      -35.380798    
 2    2.1059999      -14.742000      -35.380798    
 2    0.0000000      -14.742000      -37.486797    
 1    2.1059999      -14.742000      -37.486797    
 1    0.0000000      -12.636000      -37.486797    
 2    2.1059999      -12.636000      -37.486797    
 2    0.0000000      -12.636000      -39.592796    
 1    2.1059999      -12.636000      -39.592796    
 1    0.0000000      -10.530000      -39.592796    
 2    2.1059999      -10.530000      -39.592796    
 2    0.0000000      -10.530000      -41.698799    
 1    2.1059999      -10.530000      -41.698799    
 1    0.0000000      -8.4239998      -41.698799    
 2    2.1059999      -8.4239998      -41.698799    
 2    0.0000000      -8.4239998      -43.804798    
 1    2.1059999      -8.4239998      -43.804798    
 1    0.0000000      -6.3179998      -43.804798    
 2    2.1059999      -6.3179998      -43.804798    
 2    0.0000000      -29.483999      -18.532799    
 1    2.1059999      -29.483999      -18.532799    
 1    0.0000000      -27.377998      -18.532799    
 2    2.1059999      -27.377998      -18.532799    
 2    0.0000000      -27.377998      -20.638798    
 1    2.1059999      -27.377998      -20.638798    
 1    0.0000000      -25.271999      -20.638798    
 2    2.1059999      -25.271999      -20.638798    
 2    0.0000000      -25.271999      -22.744799    
 1    2.1059999      -25.271999      -22.744799    
 1    0.0000000      -23.166000      -22.744799    
 2    2.1059999      -23.166000      -22.744799    
 2    0.0000000      -23.166000      -24.850800    
 1    2.1059999      -23.166000      -24.850800    
 1    0.0000000      -21.059999      -24.850800    
 2    2.1059999      -21.059999      -24.850800    
 2    0.0000000      -21.059999      -26.956799    
 1    2.1059999      -21.059999      -26.956799    
 1    0.0000000      -18.953999      -26.956799    
 2    2.1059999      -18.953999      -26.956799    
 2    0.0000000      -18.953999      -29.062798    
 1    2.1059999      -18.953999      -29.062798    
 1    0.0000000      -16.848000      -29.062798    
 2    2.1059999      -16.848000      -29.062798    
 2    0.0000000      -16.848000      -31.168798    
 1    2.1059999      -16.848000      -31.168798    
 1    0.0000000      -14.742000      -31.168798    
 2    2.1059999      -14.742000      -31.168798    
 2    0.0000000      -14.742000      -33.274799    
 1    2.1059999      -14.742000      -33.274799    
 1    0.0000000      -12.636000      -33.274799    
 2    2.1059999      -12.636000      -33.274799    
 2    0.0000000      -12.636000      -35.380798    
 1    2.1059999      -12.636000      -35.380798    
 1    0.0000000      -10.530000      -35.380798    
 2    2.1059999      -10.530000      -35.380798    
 2    0.0000000      -10.530000      -37.486797    
 1    2.1059999      -10.530000      -37.486797    
 1    0.0000000      -8.4239998      -37.486797    
 2    2.1059999      -8.4239998      -37.486797    
 2    0.0000000      -8.4239998      -39.592796    
 1    2.1059999      -8.4239998      -39.592796    
 1    0.0000000      -6.3179998      -39.592796    
 2    2.1059999      -6.3179998      -39.592796    
 2    0.0000000      -6.3179998      -41.698799    
 1    2.1059999      -6.3179998      -41.698799    
 1    0.0000000      -4.2119999      -41.698799    
 2    2.1059999      -4.2119999      -41.698799    
 2    0.0000000      -4.2119999      -43.804798    
 1    2.1059999      -4.2119999      -43.804798    
 1    0.0000000      -2.1059999      -43.804798    
 2    2.1059999      -2.1059999      -43.804798    
 2    0.0000000      -27.377998      -16.426800    
 1    2.1059999      -27.377998      -16.426800    
 1    0.0000000      -25.271999      -16.426800    
 2    2.1059999      -25.271999      -16.426800    
 2    0.0000000      -25.271999      -18.532799    
 1    2.1059999      -25.271999      -18.532799    
 1    0.0000000      -23.166000      -18.532799    
 2    2.1059999      -23.166000      -18.532799    
 2    0.0000000      -23.166000      -20.638798    
 1    2.1059999      -23.166000      -20.638798    
 1    0.0000000      -21.059999      -20.638798    
 2    2.1059999      -21.059999      -20.638798    
 2    0.0000000      -21.059999      -22.744799    
 1    2.1059999      -21.059999      -22.744799    
 1    0.0000000      -18.953999      -22.744799    
 2    2.1059999      -18.953999      -22.744799    
 2    0.0000000      -18.953999      -24.850800    
 1    2.1059999      -18.953999      -24.850800    
 1    0.0000000      -16.848000      -24.850800    
 2    2.1059999      -16.848000      -24.850800    
 2    0.0000000      -16.848000      -26.956799    
 1    2.1059999      -16.848000      -26.956799    
 1    0.0000000      -14.742000      -26.956799    
 2    2.1059999      -14.742000      -26.956799    
 2    0.0000000      -14.742000      -29.062798    
 1    2.1059999      -14.742000      -29.062798    
 1    0.0000000      -12.636000      -29.062798    
 2    2.1059999      -12.636000      -29.062798    
 2    0.0000000      -12.636000      -31.168798    
 1    2.1059999      -12.636000      -31.168798    
 1    0.0000000      -10.530000      -31.168798    
 2    2.1059999      -10.530000      -31.168798    
 2    0.0000000      -10.530000      -33.274799    
 1    2.1059999      -10.530000      -33.274799    
 1    0.0000000      -8.4239998      -33.274799    
 2    2.1059999      -8.4239998      -33.274799    
 2    0.0000000      -8.4239998      -35.380798    
 1    2.1059999      -8.4239998      -35.380798    
 1    0.0000000      -6.3179998      -35.380798    
 2    2.1059999      -6.3179998      -35.380798    
 2    0.0000000      -6.3179998      -37.486797    
 1    2.1059999      -6.3179998      -37.486797    
 1    0.0000000      -4.2119999      -37.486797    
 2    2.1059999      -4.2119999      -37.486797    
 2    0.0000000      -4.2119999      -39.592796    