6
Atoms. Timestep: 0
1 0 0 0
1 2.15 2.15 0
1 2.15 3.85903e-09 2.15
2 2.15 0 0
2 3.85903e-09 2.15 0
2 2.15 2.15 2.15
6
Atoms. Timestep: 1
1 1.35003e-05 0.000215 1.35003e-05
1 2.15 2.15 1.35003e-05
1 2.15 0.000215004 2.15
2 2.15 0.000215 1.35003e-05
2 1.35042e-05 2.15 1.35003e-05
2 2.15 2.15 2.15
6
Atoms. Timestep: 2
1 2.69768e-05 0.00043 2.69768e-05
1 2.15 2.15 2.69768e-05
1 2.15 0.000430004 2.15
2 2.15 0.00043 2.69768e-05
2 2.69807e-05 2.15 2.69768e-05
2 2.15 2.15 2.15
6
Atoms. Timestep: 3
1 4.04296e-05 0.000645 4.04296e-05
1 2.15 2.15 4.04296e-05
1 2.15 0.000645004 2.15
2 2.15 0.000645 4.04296e-05
2 4.04334e-05 2.15 4.04296e-05
2 2.15 2.15 2.15
6
Atoms. Timestep: 4
1 5.38585e-05 0.00086 5.38585e-05
1 2.15 2.15 5.38585e-05
1 2.15 0.000860004 2.15
2 2.15 0.00086 5.38585e-05
2 5.38623e-05 2.15 5.38585e-05
2 2.15 2.15 2.15
6
Atoms. Timestep: 5
1 6.72635e-05 0.001075 6.72635e-05
1 2.15 2.15 6.72635e-05
1 2.15 0.001075 2.15
2 2.15 0.001075 6.72635e-05
2 6.72674e-05 2.15 6.72635e-05
2 2.15 2.15 2.15
6
Atoms. Timestep: 6
1 8.06448e-05 0.00129 8.06448e-05
1 2.15 2.15 8.06448e-05
1 2.15 0.00129 2.15
2 2.15 0.00129 8.06448e-05
2 8.06486e-05 2.15 8.06448e-05
2 2.15 2.15 2.15
6
Atoms. Timestep: 7
1 9.40022e-05 0.001505 9.40022e-05
1 2.15 2.15 9.40022e-05
1 2.15 0.001505 2.15
2 2.15 0.001505 9.40022e-05
2 9.4006e-05 2.15 9.40022e-05
2 2.15 2.15 2.15
6
Atoms. Timestep: 8
1 0.000107336 0.00172 0.000107336
1 2.15 2.15 0.000107336
1 2.15 0.00172 2.15
2 2.15 0.00172 0.000107336
2 0.00010734 2.15 0.000107336
2 2.15 2.15 2.15
6
Atoms. Timestep: 9
1 0.000120645 0.001935 0.000120645
1 2.15 2.15 0.000120645
1 2.15 0.001935 2.15
2 2.15 0.001935 0.000120645
2 0.000120649 2.15 0.000120645
2 2.15 2.15 2.15
6
Atoms. Timestep: 10
1 0.000133931 0.00215 0.000133931
1 2.15 2.15 0.000133931
1 2.15 0.00215 2.15
2 2.15 0.00215 0.000133931
2 0.000133935 2.15 0.000133931
2 2.15 2.15 2.15
6
Atoms. Timestep: 11
1 0.000147193 0.002365 0.000147193
1 2.15 2.15 0.000147193
1 2.15 0.002365 2.15
2 2.15 0.002365 0.000147193
2 0.000147197 2.15 0.000147193
2 2.15 2.15 2.15
6
Atoms. Timestep: 12
1 0.000160431 0.00258 0.000160431
1 2.15 2.15 0.000160431
1 2.15 0.00258 2.15
2 2.15 0.00258 0.000160431
2 0.000160435 2.15 0.000160431
2 2.15 2.15 2.15
6
Atoms. Timestep: 13
1 0.000173645 0.002795 0.000173645
1 2.15 2.15 0.000173645
1 2.15 0.002795 2.15
2 2.15 0.002795 0.000173645
2 0.000173649 2.15 0.000173645
2 2.15 2.15 2.15
6
Atoms. Timestep: 14
1 0.000186835 0.00301 0.000186835
1 2.15 2.15 0.000186835
1 2.15 0.00301 2.15
2 2.15 0.00301 0.000186835
2 0.000186839 2.15 0.000186835
2 2.15 2.15 2.15
6
Atoms. Timestep: 15
1 0.000200001 0.003225 0.000200001
1 2.15 2.15 0.000200001
1 2.15 0.003225 2.15
2 2.15 0.003225 0.000200001
2 0.000200005 2.15 0.000200001
2 2.15 2.15 2.15
6
Atoms. Timestep: 16
1 0.000213144 0.00344 0.000213144
1 2.15 2.15 0.000213144
1 2.15 0.00344 2.15
2 2.15 0.00344 0.000213144
2 0.000213147 2.15 0.000213144
2 2.15 2.15 2.15
6
Atoms. Timestep: 17
1 0.000226262 0.003655 0.000226262
1 2.15 2.15 0.000226262
1 2.15 0.003655 2.15
2 2.15 0.003655 0.000226262
2 0.000226266 2.15 0.000226262
2 2.15 2.15 2.15
6
Atoms. Timestep: 18
1 0.000239356 0.00387 0.000239356
1 2.15 2.15 0.000239356
1 2.15 0.00387 2.15
2 2.15 0.00387 0.000239356
2 0.00023936 2.15 0.000239356
2 2.15 2.15 2.15
6
Atoms. Timestep: 19
1 0.000252426 0.004085 0.000252426
1 2.15 2.15 0.000252426
1 2.15 0.004085 2.15
2 2.15 0.004085 0.000252426
2 0.00025243 2.15 0.000252426
2 2.15 2.15 2.15
6
Atoms. Timestep: 20
1 0.000265473 0.0043 0.000265473
1 2.15 2.15 0.000265473
1 2.15 0.0043 2.15
2 2.15 0.0043 0.000265473
2 0.000265476 2.15 0.000265473
2 2.15 2.15 2.15
6
Atoms. Timestep: 21
1 0.000278495 0.004515 0.000278495
1 2.15 2.15 0.000278495
1 2.15 0.004515 2.15
2 2.15 0.004515 0.000278495
2 0.000278499 2.15 0.000278495
2 2.15 2.15 2.15
6
Atoms. Timestep: 22
1 0.000291493 0.00473 0.000291493
1 2.15 2.15 0.000291493
1 2.15 0.00473 2.15
2 2.15 0.00473 0.000291493
2 0.000291497 2.15 0.000291493
2 2.15 2.15 2.15
6
Atoms. Timestep: 23
1 0.000304467 0.004945 0.000304467
1 2.15 2.15 0.000304467
1 2.15 0.004945 2.15
2 2.15 0.004945 0.000304467
2 0.000304471 2.15 0.000304467
2 2.15 2.15 2.15
6
Atoms. Timestep: 24
1 0.000317417 0.00516 0.000317417
1 2.15 2.15 0.000317417
1 2.15 0.00516 2.15
2 2.15 0.00516 0.000317417
2 0.000317421 2.15 0.000317417
2 2.15 2.15 2.15
6
Atoms. Timestep: 25
1 0.000330343 0.005375 0.000330343
1 2.15 2.15 0.000330343
1 2.15 0.005375 2.15
2 2.15 0.005375 0.000330343
2 0.000330347 2.15 0.000330343
2 2.15 2.15 2.15
6
Atoms. Timestep: 26
1 0.000343245 0.00559 0.000343245
1 2.15 2.15 0.000343245
1 2.15 0.00559 2.15
2 2.15 0.00559 0.000343245
2 0.000343249 2.15 0.000343245
2 2.15 2.15 2.15
6
Atoms. Timestep: 27
1 0.000356123 0.005805 0.000356123
1 2.15 2.15 0.000356123
1 2.15 0.005805 2.15
2 2.15 0.005805 0.000356123
2 0.000356127 2.15 0.000356123
2 2.15 2.15 2.15
6
Atoms. Timestep: 28
1 0.000368977 0.00602 0.000368977
1 2.15 2.15 0.000368977
1 2.15 0.00602 2.15
2 2.15 0.00602 0.000368977
2 0.000368981 2.15 0.000368977
2 2.15 2.15 2.15
6
Atoms. Timestep: 29
1 0.000381807 0.006235 0.000381807
1 2.15 2.15 0.000381807
1 2.15 0.006235 2.15
2 2.15 0.006235 0.000381807
2 0.00038181 2.15 0.000381807
2 2.15 2.15 2.15
6
Atoms. Timestep: 30
1 0.000394612 0.00645 0.000394612
1 2.15 2.15 0.000394612
1 2.15 0.00645 2.15
2 2.15 0.00645 0.000394612
2 0.000394616 2.15 0.000394612
2 2.15 2.15 2.15
6
Atoms. Timestep: 31
1 0.000407394 0.006665 0.000407394
1 2.15 2.15 0.000407394
1 2.15 0.006665 2.15
2 2.15 0.006665 0.000407394
2 0.000407397 2.15 0.000407394
2 2.15 2.15 2.15
6
Atoms. Timestep: 32
1 0.000420151 0.00688 0.000420151
1 2.15 2.15 0.000420151
1 2.15 0.00688 2.15
2 2.15 0.00688 0.000420151
2 0.000420155 2.15 0.000420151
2 2.15 2.15 2.15
6
Atoms. Timestep: 33
1 0.000432884 0.007095 0.000432884
1 2.15 2.15 0.000432884
1 2.15 0.007095 2.15
2 2.15 0.007095 0.000432884
2 0.000432888 2.15 0.000432884
2 2.15 2.15 2.15
6
Atoms. Timestep: 34
1 0.000445593 0.00731 0.000445593
1 2.15 2.15 0.000445593
1 2.15 0.00731 2.15
2 2.15 0.00731 0.000445593
2 0.000445596 2.15 0.000445593
2 2.15 2.15 2.15
6
Atoms. Timestep: 35
1 0.000458277 0.007525 0.000458277
1 2.15 2.15 0.000458277
1 2.15 0.007525 2.15
2 2.15 0.007525 0.000458277
2 0.000458281 2.15 0.000458277
2 2.15 2.15 2.15
6
Atoms. Timestep: 36
1 0.000470938 0.00774 0.000470938
1 2.15 2.15 0.000470938
1 2.15 0.00774 2.15
2 2.15 0.00774 0.000470938
2 0.000470942 2.15 0.000470938
2 2.15 2.15 2.15
6
Atoms. Timestep: 37
1 0.000483574 0.007955 0.000483574
1 2.15 2.15 0.000483574
1 2.15 0.007955 2.15
2 2.15 0.007955 0.000483574
2 0.000483578 2.15 0.000483574
2 2.15 2.15 2.15
6
Atoms. Timestep: 38
1 0.000496186 0.00817 0.000496186
1 2.15 2.15 0.000496186
1 2.15 0.00817 2.15
2 2.15 0.00817 0.000496186
2 0.00049619 2.15 0.000496186
2 2.15 2.15 2.15
6
Atoms. Timestep: 39
1 0.000508774 0.008385 0.000508774
1 2.15 2.15 0.000508774
1 2.15 0.008385 2.15
2 2.15 0.008385 0.000508774
2 0.000508778 2.15 0.000508774
2 2.15 2.15 2.15
6
Atoms. Timestep: 40
1 0.000521337 0.0086 0.000521337
1 2.15 2.15 0.000521337
1 2.15 0.0086 2.15
2 2.15 0.0086 0.000521337
2 0.000521341 2.15 0.000521337
2 2.15 2.15 2.15
6
Atoms. Timestep: 41
1 0.000533876 0.008815 0.000533876
1 2.15 2.15 0.000533876
1 2.15 0.008815 2.15
2 2.15 0.008815 0.000533876
2 0.00053388 2.15 0.000533876
2 2.15 2.15 2.15
6
Atoms. Timestep: 42
1 0.000546391 0.00903 0.000546391
1 2.15 2.15 0.000546391
1 2.15 0.00903 2.15
2 2.15 0.00903 0.000546391
2 0.000546395 2.15 0.000546391
2 2.15 2.15 2.15
6
Atoms. Timestep: 43
1 0.000558882 0.009245 0.000558882
1 2.15 2.15 0.000558882
1 2.15 0.009245 2.15
2 2.15 0.009245 0.000558882
2 0.000558886 2.15 0.000558882
2 2.15 2.15 2.15
6
Atoms. Timestep: 44
1 0.000571348 0.00946 0.000571348
1 2.15 2.15 0.000571348
1 2.15 0.00946 2.15
2 2.15 0.00946 0.000571348
2 0.000571352 2.15 0.000571348
2 2.15 2.15 2.15
6
Atoms. Timestep: 45
1 0.00058379 0.009675 0.00058379
1 2.15 2.15 0.00058379
1 2.15 0.009675 2.15
2 2.15 0.009675 0.00058379
2 0.000583794 2.15 0.00058379
2 2.15 2.15 2.15
6
Atoms. Timestep: 46
1 0.000596208 0.00989 0.000596208
1 2.15 2.15 0.000596208
1 2.15 0.00989 2.15
2 2.15 0.00989 0.000596208
2 0.000596212 2.15 0.000596208
2 2.15 2.15 2.15
6
Atoms. Timestep: 47
1 0.000608601 0.010105 0.000608601
1 2.15 2.15 0.000608601
1 2.15 0.010105 2.15
2 2.15 0.010105 0.000608601
2 0.000608605 2.15 0.000608601
2 2.15 2.15 2.15
6
Atoms. Timestep: 48
1 0.00062097 0.01032 0.00062097
1 2.15 2.15 0.00062097
1 2.15 0.01032 2.15
2 2.15 0.01032 0.00062097
2 0.000620974 2.15 0.00062097
2 2.15 2.15 2.15
6
Atoms. Timestep: 49
1 0.000633315 0.010535 0.000633315
1 2.15 2.15 0.000633315
1 2.15 0.010535 2.15
2 2.15 0.010535 0.000633315
2 0.000633319 2.15 0.000633315
2 2.15 2.15 2.15
6
Atoms. Timestep: 50
1 0.000645635 0.01075 0.000645635
1 2.15 2.15 0.000645635
1 2.15 0.01075 2.15
2 2.15 0.01075 0.000645635
2 0.000645639 2.15 0.000645635
2 2.15 2.15 2.15
6
Atoms. Timestep: 51
1 0.000657931 0.010965 0.000657931
1 2.15 2.15 0.000657931
1 2.15 0.010965 2.15
2 2.15 0.010965 0.000657931
2 0.000657934 2.15 0.000657931
2 2.15 2.15 2.15
6
Atoms. Timestep: 52
1 0.000670202 0.01118 0.000670202
1 2.15 2.15 0.000670202
1 2.15 0.01118 2.15
2 2.15 0.01118 0.000670202
2 0.000670206 2.15 0.000670202
2 2.15 2.15 2.15
6
Atoms. Timestep: 53
1 0.000682449 0.011395 0.000682449
1 2.15 2.15 0.000682449
1 2.15 0.011395 2.15
2 2.15 0.011395 0.000682449
2 0.000682453 2.15 0.000682449
2 2.15 2.15 2.15
6
Atoms. Timestep: 54
1 0.000694671 0.01161 0.000694671
1 2.15 2.15 0.000694671
1 2.15 0.01161 2.15
2 2.15 0.01161 0.000694671
2 0.000694675 2.15 0.000694671
2 2.15 2.15 2.15
6
Atoms. Timestep: 55
1 0.000706869 0.011825 0.000706869
1 2.15 2.15 0.000706869
1 2.15 0.011825 2.15
2 2.15 0.011825 0.000706869
2 0.000706873 2.15 0.000706869
2 2.15 2.15 2.15
6
Atoms. Timestep: 56
1 0.000719043 0.01204 0.000719043
1 2.15 2.15 0.000719043
1 2.15 0.01204 2.15
2 2.15 0.01204 0.000719043
2 0.000719047 2.15 0.000719043
2 2.15 2.15 2.15
6
Atoms. Timestep: 57
1 0.000731192 0.012255 0.000731192
1 2.15 2.15 0.000731192
1 2.15 0.012255 2.15
2 2.15 0.012255 0.000731192
2 0.000731196 2.15 0.000731192
2 2.15 2.15 2.15
6
Atoms. Timestep: 58
1 0.000743316 0.01247 0.000743316
1 2.15 2.15 0.000743316
1 2.15 0.01247 2.15
2 2.15 0.01247 0.000743316
2 0.00074332 2.15 0.000743316
2 2.15 2.15 2.15
6
Atoms. Timestep: 59
1 0.000755416 0.012685 0.000755416
1 2.15 2.15 0.000755416
1 2.15 0.012685 2.15
2 2.15 0.012685 0.000755416
2 0.00075542 2.15 0.000755416
2 2.15 2.15 2.15
6
Atoms. Timestep: 60
1 0.000767492 0.0129 0.000767492
1 2.15 2.15 0.000767492
1 2.15 0.0129 2.15
2 2.15 0.0129 0.000767492
2 0.000767496 2.15 0.000767492
2 2.15 2.15 2.15
6
Atoms. Timestep: 61
1 0.000779543 0.013115 0.000779543
1 2.15 2.15 0.000779543
1 2.15 0.013115 2.15
2 2.15 0.013115 0.000779543
2 0.000779546 2.15 0.000779543
2 2.15 2.15 2.15
6
Atoms. Timestep: 62
1 0.000791569 0.01333 0.000791569
1 2.15 2.15 0.000791569
1 2.15 0.01333 2.15
2 2.15 0.01333 0.000791569
2 0.000791573 2.15 0.000791569
2 2.15 2.15 2.15
6
Atoms. Timestep: 63
1 0.000803571 0.013545 0.000803571
1 2.15 2.15 0.000803571
1 2.15 0.013545 2.15
2 2.15 0.013545 0.000803571
2 0.000803575 2.15 0.000803571
2 2.15 2.15 2.15
6
Atoms. Timestep: 64
1 0.000815548 0.01376 0.000815548
1 2.15 2.15 0.000815548
1 2.15 0.01376 2.15
2 2.15 0.01376 0.000815548
2 0.000815552 2.15 0.000815548
2 2.15 2.15 2.15
6
Atoms. Timestep: 65
1 0.000827501 0.013975 0.000827501
1 2.15 2.15 0.000827501
1 2.15 0.013975 2.15
2 2.15 0.013975 0.000827501
2 0.000827504 2.15 0.000827501
2 2.15 2.15 2.15
6
Atoms. Timestep: 66
1 0.000839429 0.01419 0.000839429
1 2.15 2.15 0.000839429
1 2.15 0.01419 2.15
2 2.15 0.01419 0.000839429
2 0.000839432 2.15 0.000839429
2 2.15 2.15 2.15
6
Atoms. Timestep: 67
1 0.000851332 0.014405 0.000851332
1 2.15 2.15 0.000851332
1 2.15 0.014405 2.15
2 2.15 0.014405 0.000851332
2 0.000851336 2.15 0.000851332
2 2.15 2.15 2.15
6
Atoms. Timestep: 68
1 0.000863211 0.01462 0.000863211
1 2.15 2.15 0.000863211
1 2.15 0.01462 2.15
2 2.15 0.01462 0.000863211
2 0.000863214 2.15 0.000863211
2 2.15 2.15 2.15
6
Atoms. Timestep: 69
1 0.000875065 0.014835 0.000875065
1 2.15 2.15 0.000875065
1 2.15 0.014835 2.15
2 2.15 0.014835 0.000875065
2 0.000875068 2.15 0.000875065
2 2.15 2.15 2.15
6
Atoms. Timestep: 70
1 0.000886894 0.01505 0.000886894
1 2.15 2.15 0.000886894
1 2.15 0.01505 2.15
2 2.15 0.01505 0.000886894
2 0.000886898 2.15 0.000886894
2 2.15 2.15 2.15
6
Atoms. Timestep: 71
1 0.000898699 0.015265 0.000898699
1 2.15 2.15 0.000898699
1 2.15 0.015265 2.15
2 2.15 0.015265 0.000898699
2 0.000898703 2.15 0.000898699
2 2.15 2.15 2.15
6
Atoms. Timestep: 72
1 0.000910479 0.01548 0.000910479
1 2.15 2.15 0.000910479
1 2.15 0.01548 2.15
2 2.15 0.01548 0.000910479
2 0.000910483 2.15 0.000910479
2 2.15 2.15 2.15
6
Atoms. Timestep: 73
1 0.000922234 0.015695 0.000922234
1 2.15 2.15 0.000922234
1 2.15 0.015695 2.15
2 2.15 0.015695 0.000922234
2 0.000922238 2.15 0.000922234
2 2.15 2.15 2.15
6
Atoms. Timestep: 74
1 0.000933965 0.01591 0.000933965
1 2.15 2.15 0.000933965
1 2.15 0.01591 2.15
2 2.15 0.01591 0.000933965
2 0.000933968 2.15 0.000933965
2 2.15 2.15 2.15
6
Atoms. Timestep: 75
1 0.00094567 0.016125 0.00094567
1 2.15 2.15 0.00094567
1 2.15 0.016125 2.15
2 2.15 0.016125 0.00094567
2 0.000945674 2.15 0.00094567
2 2.15 2.15 2.15
6
Atoms. Timestep: 76
1 0.000957351 0.01634 0.000957351
1 2.15 2.15 0.000957351
1 2.15 0.01634 2.15
2 2.15 0.01634 0.000957351
2 0.000957355 2.15 0.000957351
2 2.15 2.15 2.15
6
Atoms. Timestep: 77
1 0.000969008 0.016555 0.000969008
1 2.15 2.15 0.000969008
1 2.15 0.016555 2.15
2 2.15 0.016555 0.000969008
2 0.000969011 2.15 0.000969008
2 2.15 2.15 2.15
6
Atoms. Timestep: 78
1 0.000980639 0.01677 0.000980639
1 2.15 2.15 0.000980639
1 2.15 0.01677 2.15
2 2.15 0.01677 0.000980639
2 0.000980643 2.15 0.000980639
2 2.15 2.15 2.15
6
Atoms. Timestep: 79
1 0.000992246 0.016985 0.000992246
1 2.15 2.15 0.000992246
1 2.15 0.016985 2.15
2 2.15 0.016985 0.000992246
2 0.00099225 2.15 0.000992246
2 2.15 2.15 2.15
6
Atoms. Timestep: 80
1 0.00100383 0.0172 0.00100383
1 2.15 2.15 0.00100383
1 2.15 0.0172 2.15
2 2.15 0.0172 0.00100383
2 0.00100383 2.15 0.00100383
2 2.15 2.15 2.15
6
Atoms. Timestep: 81
1 0.00101538 0.017415 0.00101538
1 2.15 2.15 0.00101538
1 2.15 0.017415 2.15
2 2.15 0.017415 0.00101538
2 0.00101539 2.15 0.00101538
2 2.15 2.15 2.15
6
Atoms. Timestep: 82
1 0.00102692 0.01763 0.00102692
1 2.15 2.15 0.00102692
1 2.15 0.01763 2.15
2 2.15 0.01763 0.00102692
2 0.00102692 2.15 0.00102692
2 2.15 2.15 2.15
6
Atoms. Timestep: 83
1 0.00103842 0.017845 0.00103842
1 2.15 2.15 0.00103842
1 2.15 0.017845 2.15
2 2.15 0.017845 0.00103842
2 0.00103843 2.15 0.00103842
2 2.15 2.15 2.15
6
Atoms. Timestep: 84
1 0.00104991 0.01806 0.00104991
1 2.15 2.15 0.00104991
1 2.15 0.01806 2.15
2 2.15 0.01806 0.00104991
2 0.00104991 2.15 0.00104991
2 2.15 2.15 2.15
6
Atoms. Timestep: 85
1 0.00106138 0.018275 0.00106138
1 2.15 2.15 0.00106138
1 2.15 0.018275 2.15
2 2.15 0.018275 0.00106138
2 0.00106138 2.15 0.00106138
2 2.15 2.15 2.15
6
Atoms. Timestep: 86
1 0.00107282 0.01849 0.00107282
1 2.15 2.15 0.00107282
1 2.15 0.01849 2.15
2 2.15 0.01849 0.00107282
2 0.00107283 2.15 0.00107282
2 2.15 2.15 2.15
6
Atoms. Timestep: 87
1 0.00108424 0.018705 0.00108424
1 2.15 2.15 0.00108424
1 2.15 0.018705 2.15
2 2.15 0.018705 0.00108424
2 0.00108425 2.15 0.00108424
2 2.15 2.15 2.15
6
Atoms. Timestep: 88
1 0.00109564 0.01892 0.00109564
1 2.15 2.15 0.00109564
1 2.15 0.01892 2.15
2 2.15 0.01892 0.00109564
2 0.00109564 2.15 0.00109564
2 2.15 2.15 2.15
6
Atoms. Timestep: 89
1 0.00110701 0.019135 0.00110701
1 2.15 2.15 0.00110701
1 2.15 0.019135 2.15
2 2.15 0.019135 0.00110701
2 0.00110701 2.15 0.00110701
2 2.15 2.15 2.15
6
Atoms. Timestep: 90
1 0.00111836 0.01935 0.00111836
1 2.15 2.15 0.00111836
1 2.15 0.01935 2.15
2 2.15 0.01935 0.00111836
2 0.00111836 2.15 0.00111836
2 2.15 2.15 2.15
6
Atoms. Timestep: 91
1 0.00112968 0.019565 0.00112968
1 2.15 2.15 0.00112968
1 2.15 0.019565 2.15
2 2.15 0.019565 0.00112968
2 0.00112968 2.15 0.00112968
2 2.15 2.15 2.15
6
Atoms. Timestep: 92
1 0.00114097 0.01978 0.00114097
1 2.15 2.15 0.00114097
1 2.15 0.01978 2.15
2 2.15 0.01978 0.00114097
2 0.00114098 2.15 0.00114097
2 2.15 2.15 2.15
6
Atoms. Timestep: 93
1 0.00115225 0.019995 0.00115225
1 2.15 2.15 0.00115225
1 2.15 0.019995 2.15
2 2.15 0.019995 0.00115225
2 0.00115225 2.15 0.00115225
2 2.15 2.15 2.15
6
Atoms. Timestep: 94
1 0.00116349 0.02021 0.00116349
1 2.15 2.15 0.00116349
1 2.15 0.02021 2.15
2 2.15 0.02021 0.00116349
2 0.0011635 2.15 0.00116349
2 2.15 2.15 2.15
6
Atoms. Timestep: 95
1 0.00117471 0.020425 0.00117471
1 2.15 2.15 0.00117471
1 2.15 0.020425 2.15
2 2.15 0.020425 0.00117471
2 0.00117472 2.15 0.00117471
2 2.15 2.15 2.15
6
Atoms. Timestep: 96
1 0.00118591 0.02064 0.00118591
1 2.15 2.15 0.00118591
1 2.15 0.02064 2.15
2 2.15 0.02064 0.00118591
2 0.00118591 2.15 0.00118591
2 2.15 2.15 2.15
6
Atoms. Timestep: 97
1 0.00119708 0.020855 0.00119708
1 2.15 2.15 0.00119708
1 2.15 0.020855 2.15
2 2.15 0.020855 0.00119708
2 0.00119708 2.15 0.00119708
2 2.15 2.15 2.15
6
Atoms. Timestep: 98
1 0.00120823 0.02107 0.00120823
1 2.15 2.15 0.00120823
1 2.15 0.02107 2.15
2 2.15 0.02107 0.00120823
2 0.00120823 2.15 0.00120823
2 2.15 2.15 2.15
6
Atoms. Timestep: 99
1 0.00121935 0.021285 0.00121935
1 2.15 2.15 0.00121935
1 2.15 0.021285 2.15
2 2.15 0.021285 0.00121935
2 0.00121935 2.15 0.00121935
2 2.15 2.15 2.15
6
Atoms. Timestep: 100
1 0.00123044 0.0215 0.00123044
1 2.15 2.15 0.00123044
1 2.15 0.0215 2.15
2 2.15 0.0215 0.00123044
2 0.00123045 2.15 0.00123044
2 2.15 2.15 2.15
6
Atoms. Timestep: 101
1 0.00124151 0.021715 0.00124151
1 2.15 2.15 0.00124151
1 2.15 0.021715 2.15
2 2.15 0.021715 0.00124151
2 0.00124152 2.15 0.00124151
2 2.15 2.15 2.15
6
Atoms. Timestep: 102
1 0.00125256 0.02193 0.00125256
1 2.15 2.15 0.00125256
1 2.15 0.02193 2.15
2 2.15 0.02193 0.00125256
2 0.00125256 2.15 0.00125256
2 2.15 2.15 2.15
6
Atoms. Timestep: 103
1 0.00126358 0.022145 0.00126358
1 2.15 2.15 0.00126358
1 2.15 0.022145 2.15
2 2.15 0.022145 0.00126358
2 0.00126358 2.15 0.00126358
2 2.15 2.15 2.15
6
Atoms. Timestep: 104
1 0.00127457 0.02236 0.00127457
1 2.15 2.15 0.00127457
1 2.15 0.02236 2.15
2 2.15 0.02236 0.00127457
2 0.00127458 2.15 0.00127457
2 2.15 2.15 2.15
6
Atoms. Timestep: 105
1 0.00128554 0.022575 0.00128554
1 2.15 2.15 0.00128554
1 2.15 0.022575 2.15
2 2.15 0.022575 0.00128554
2 0.00128555 2.15 0.00128554
2 2.15 2.15 2.15
6
Atoms. Timestep: 106
1 0.00129649 0.02279 0.00129649
1 2.15 2.15 0.00129649
1 2.15 0.02279 2.15
2 2.15 0.02279 0.00129649
2 0.00129649 2.15 0.00129649
2 2.15 2.15 2.15
6
Atoms. Timestep: 107
1 0.00130741 0.023005 0.00130741
1 2.15 2.15 0.00130741
1 2.15 0.023005 2.15
2 2.15 0.023005 0.00130741
2 0.00130741 2.15 0.00130741
2 2.15 2.15 2.15
6
Atoms. Timestep: 108
1 0.0013183 0.02322 0.0013183
1 2.15 2.15 0.0013183
1 2.15 0.02322 2.15
2 2.15 0.02322 0.0013183
2 0.00131831 2.15 0.0013183
2 2.15 2.15 2.15
6
Atoms. Timestep: 109
1 0.00132917 0.023435 0.00132917
1 2.15 2.15 0.00132917
1 2.15 0.023435 2.15
2 2.15 0.023435 0.00132917
2 0.00132918 2.15 0.00132917
2 2.15 2.15 2.15
6
Atoms. Timestep: 110
1 0.00134002 0.02365 0.00134002
1 2.15 2.15 0.00134002
1 2.15 0.02365 2.15
2 2.15 0.02365 0.00134002
2 0.00134002 2.15 0.00134002
2 2.15 2.15 2.15
6
Atoms. Timestep: 111
1 0.00135083 0.023865 0.00135083
1 2.15 2.15 0.00135083
1 2.15 0.023865 2.15
2 2.15 0.023865 0.00135083
2 0.00135084 2.15 0.00135083
2 2.15 2.15 2.15
6
Atoms. Timestep: 112
1 0.00136163 0.02408 0.00136163
1 2.15 2.15 0.00136163
1 2.15 0.02408 2.15
2 2.15 0.02408 0.00136163
2 0.00136163 2.15 0.00136163
2 2.15 2.15 2.15
6
Atoms. Timestep: 113
1 0.00137239 0.024295 0.00137239
1 2.15 2.15 0.00137239
1 2.15 0.024295 2.15
2 2.15 0.024295 0.00137239
2 0.0013724 2.15 0.00137239
2 2.15 2.15 2.15
6
Atoms. Timestep: 114
1 0.00138314 0.02451 0.00138314
1 2.15 2.15 0.00138314
1 2.15 0.02451 2.15
2 2.15 0.02451 0.00138314
2 0.00138314 2.15 0.00138314
2 2.15 2.15 2.15
6
Atoms. Timestep: 115
1 0.00139385 0.024725 0.00139385
1 2.15 2.15 0.00139385
1 2.15 0.024725 2.15
2 2.15 0.024725 0.00139385
2 0.00139386 2.15 0.00139385
2 2.15 2.15 2.15
6
Atoms. Timestep: 116
1 0.00140455 0.02494 0.00140455
1 2.15 2.15 0.00140455
1 2.15 0.02494 2.15
2 2.15 0.02494 0.00140455
2 0.00140455 2.15 0.00140455
2 2.15 2.15 2.15
6
Atoms. Timestep: 117
1 0.00141521 0.025155 0.00141521
1 2.15 2.15 0.00141521
1 2.15 0.025155 2.15
2 2.15 0.025155 0.00141521
2 0.00141522 2.15 0.00141521
2 2.15 2.15 2.15
6
Atoms. Timestep: 118
1 0.00142585 0.02537 0.00142585
1 2.15 2.15 0.00142585
1 2.15 0.02537 2.15
2 2.15 0.02537 0.00142585
2 0.00142586 2.15 0.00142585
2 2.15 2.15 2.15
6
Atoms. Timestep: 119
1 0.00143647 0.025585 0.00143647
1 2.15 2.15 0.00143647
1 2.15 0.025585 2.15
2 2.15 0.025585 0.00143647
2 0.00143647 2.15 0.00143647
2 2.15 2.15 2.15
6
Atoms. Timestep: 120
1 0.00144706 0.0258 0.00144706
1 2.15 2.15 0.00144706
1 2.15 0.0258 2.15
2 2.15 0.0258 0.00144706
2 0.00144706 2.15 0.00144706
2 2.15 2.15 2.15
6
Atoms. Timestep: 121
1 0.00145762 0.026015 0.00145762
1 2.15 2.15 0.00145762
1 2.15 0.026015 2.15
2 2.15 0.026015 0.00145762
2 0.00145763 2.15 0.00145762
2 2.15 2.15 2.15
6
Atoms. Timestep: 122
1 0.00146816 0.02623 0.00146816
1 2.15 2.15 0.00146816
1 2.15 0.02623 2.15
2 2.15 0.02623 0.00146816
2 0.00146817 2.15 0.00146816
2 2.15 2.15 2.15
6
Atoms. Timestep: 123
1 0.00147868 0.026445 0.00147868
1 2.15 2.15 0.00147868
1 2.15 0.026445 2.15
2 2.15 0.026445 0.00147868
2 0.00147868 2.15 0.00147868
2 2.15 2.15 2.15
6
Atoms. Timestep: 124
1 0.00148916 0.02666 0.00148916
1 2.15 2.15 0.00148916
1 2.15 0.02666 2.15
2 2.15 0.02666 0.00148916
2 0.00148917 2.15 0.00148916
2 2.15 2.15 2.15
6
Atoms. Timestep: 125
1 0.00149963 0.026875 0.00149963
1 2.15 2.15 0.00149963
1 2.15 0.026875 2.15
2 2.15 0.026875 0.00149963
2 0.00149963 2.15 0.00149963
2 2.15 2.15 2.15
6
Atoms. Timestep: 126
1 0.00151006 0.02709 0.00151006
1 2.15 2.15 0.00151006
1 2.15 0.02709 2.15
2 2.15 0.02709 0.00151006
2 0.00151007 2.15 0.00151006
2 2.15 2.15 2.15
6
Atoms. Timestep: 127
1 0.00152048 0.027305 0.00152048
1 2.15 2.15 0.00152048
1 2.15 0.027305 2.15
2 2.15 0.027305 0.00152048
2 0.00152048 2.15 0.00152048
2 2.15 2.15 2.15
6
Atoms. Timestep: 128
1 0.00153086 0.02752 0.00153086
1 2.15 2.15 0.00153086
1 2.15 0.02752 2.15
2 2.15 0.02752 0.00153086
2 0.00153087 2.15 0.00153086
2 2.15 2.15 2.15
6
Atoms. Timestep: 129
1 0.00154122 0.027735 0.00154122
1 2.15 2.15 0.00154122
1 2.15 0.027735 2.15
2 2.15 0.027735 0.00154122
2 0.00154123 2.15 0.00154122
2 2.15 2.15 2.15
6
Atoms. Timestep: 130
1 0.00155156 0.02795 0.00155156
1 2.15 2.15 0.00155156
1 2.15 0.02795 2.15
2 2.15 0.02795 0.00155156
2 0.00155156 2.15 0.00155156
2 2.15 2.15 2.15
6
Atoms. Timestep: 131
1 0.00156187 0.028165 0.00156187
1 2.15 2.15 0.00156187
1 2.15 0.028165 2.15
2 2.15 0.028165 0.00156187
2 0.00156187 2.15 0.00156187
2 2.15 2.15 2.15
6
Atoms. Timestep: 132
1 0.00157215 0.02838 0.00157215
1 2.15 2.15 0.00157215
1 2.15 0.02838 2.15
2 2.15 0.02838 0.00157215
2 0.00157215 2.15 0.00157215
2 2.15 2.15 2.15
6
Atoms. Timestep: 133
1 0.00158241 0.028595 0.00158241
1 2.15 2.15 0.00158241
1 2.15 0.028595 2.15
2 2.15 0.028595 0.00158241
2 0.00158241 2.15 0.00158241
2 2.15 2.15 2.15
6
Atoms. Timestep: 134
1 0.00159264 0.02881 0.00159264
1 2.15 2.15 0.00159264
1 2.15 0.02881 2.15
2 2.15 0.02881 0.00159264
2 0.00159264 2.15 0.00159264
2 2.15 2.15 2.15
6
Atoms. Timestep: 135
1 0.00160285 0.029025 0.00160285
1 2.15 2.15 0.00160285
1 2.15 0.029025 2.15
2 2.15 0.029025 0.00160285
2 0.00160285 2.15 0.00160285
2 2.15 2.15 2.15
6
Atoms. Timestep: 136
1 0.00161303 0.02924 0.00161303
1 2.15 2.15 0.00161303
1 2.15 0.02924 2.15
2 2.15 0.02924 0.00161303
2 0.00161303 2.15 0.00161303
2 2.15 2.15 2.15
6
Atoms. Timestep: 137
1 0.00162318 0.029455 0.00162318
1 2.15 2.15 0.00162318
1 2.15 0.029455 2.15
2 2.15 0.029455 0.00162318
2 0.00162319 2.15 0.00162318
2 2.15 2.15 2.15
6
Atoms. Timestep: 138
1 0.00163331 0.02967 0.00163331
1 2.15 2.15 0.00163331
1 2.15 0.02967 2.15
2 2.15 0.02967 0.00163331
2 0.00163332 2.15 0.00163331
2 2.15 2.15 2.15
6
Atoms. Timestep: 139
1 0.00164342 0.029885 0.00164342
1 2.15 2.15 0.00164342
1 2.15 0.029885 2.15
2 2.15 0.029885 0.00164342
2 0.00164342 2.15 0.00164342
2 2.15 2.15 2.15
6
Atoms. Timestep: 140
1 0.00165349 0.0301 0.00165349
1 2.15 2.15 0.00165349
1 2.15 0.0301 2.15
2 2.15 0.0301 0.00165349
2 0.0016535 2.15 0.00165349
2 2.15 2.15 2.15
6
Atoms. Timestep: 141
1 0.00166355 0.030315 0.00166355
1 2.15 2.15 0.00166355
1 2.15 0.030315 2.15
2 2.15 0.030315 0.00166355
2 0.00166355 2.15 0.00166355
2 2.15 2.15 2.15
6
Atoms. Timestep: 142
1 0.00167357 0.03053 0.00167357
1 2.15 2.15 0.00167357
1 2.15 0.03053 2.15
2 2.15 0.03053 0.00167357
2 0.00167358 2.15 0.00167357
2 2.15 2.15 2.15
6
Atoms. Timestep: 143
1 0.00168357 0.030745 0.00168357
1 2.15 2.15 0.00168357
1 2.15 0.030745 2.15
2 2.15 0.030745 0.00168357
2 0.00168358 2.15 0.00168357
2 2.15 2.15 2.15
6
Atoms. Timestep: 144
1 0.00169355 0.03096 0.00169355
1 2.15 2.15 0.00169355
1 2.15 0.03096 2.15
2 2.15 0.03096 0.00169355
2 0.00169355 2.15 0.00169355
2 2.15 2.15 2.15
6
Atoms. Timestep: 145
1 0.0017035 0.031175 0.0017035
1 2.15 2.15 0.0017035
1 2.15 0.031175 2.15
2 2.15 0.031175 0.0017035
2 0.0017035 2.15 0.0017035
2 2.15 2.15 2.15
6
Atoms. Timestep: 146
1 0.00171342 0.03139 0.00171342
1 2.15 2.15 0.00171342
1 2.15 0.03139 2.15
2 2.15 0.03139 0.00171342
2 0.00171342 2.15 0.00171342
2 2.15 2.15 2.15
6
Atoms. Timestep: 147
1 0.00172332 0.031605 0.00172332
1 2.15 2.15 0.00172332
1 2.15 0.031605 2.15
2 2.15 0.031605 0.00172332
2 0.00172332 2.15 0.00172332
2 2.15 2.15 2.15
6
Atoms. Timestep: 148
1 0.00173319 0.03182 0.00173319
1 2.15 2.15 0.00173319
1 2.15 0.03182 2.15
2 2.15 0.03182 0.00173319
2 0.00173319 2.15 0.00173319
2 2.15 2.15 2.15
6
Atoms. Timestep: 149
1 0.00174303 0.032035 0.00174303
1 2.15 2.15 0.00174303
1 2.15 0.032035 2.15
2 2.15 0.032035 0.00174303
2 0.00174304 2.15 0.00174303
2 2.15 2.15 2.15
6
Atoms. Timestep: 150
1 0.00175285 0.03225 0.00175285
1 2.15 2.15 0.00175285
1 2.15 0.03225 2.15
2 2.15 0.03225 0.00175285
2 0.00175285 2.15 0.00175285
2 2.15 2.15 2.15
6
Atoms. Timestep: 151
1 0.00176264 0.032465 0.00176264
1 2.15 2.15 0.00176264
1 2.15 0.032465 2.15
2 2.15 0.032465 0.00176264
2 0.00176265 2.15 0.00176264
2 2.15 2.15 2.15
6
Atoms. Timestep: 152
1 0.00177241 0.03268 0.00177241
1 2.15 2.15 0.00177241
1 2.15 0.03268 2.15
2 2.15 0.03268 0.00177241
2 0.00177241 2.15 0.00177241
2 2.15 2.15 2.15
6
Atoms. Timestep: 153
1 0.00178215 0.032895 0.00178215
1 2.15 2.15 0.00178215
1 2.15 0.032895 2.15
2 2.15 0.032895 0.00178215
2 0.00178216 2.15 0.00178215
2 2.15 2.15 2.15
6
Atoms. Timestep: 154
1 0.00179187 0.03311 0.00179187
1 2.15 2.15 0.00179187
1 2.15 0.03311 2.15
2 2.15 0.03311 0.00179187
2 0.00179187 2.15 0.00179187
2 2.15 2.15 2.15
6
Atoms. Timestep: 155
1 0.00180156 0.033325 0.00180156
1 2.15 2.15 0.00180156
1 2.15 0.033325 2.15
2 2.15 0.033325 0.00180156
2 0.00180156 2.15 0.00180156
2 2.15 2.15 2.15
6
Atoms. Timestep: 156
1 0.00181122 0.03354 0.00181122
1 2.15 2.15 0.00181122
1 2.15 0.03354 2.15
2 2.15 0.03354 0.00181122
2 0.00181122 2.15 0.00181122
2 2.15 2.15 2.15
6
Atoms. Timestep: 157
1 0.00182086 0.033755 0.00182086
1 2.15 2.15 0.00182086
1 2.15 0.033755 2.15
2 2.15 0.033755 0.00182086
2 0.00182086 2.15 0.00182086
2 2.15 2.15 2.15
6
Atoms. Timestep: 158
1 0.00183047 0.03397 0.00183047
1 2.15 2.15 0.00183047
1 2.15 0.03397 2.15
2 2.15 0.03397 0.00183047
2 0.00183047 2.15 0.00183047
2 2.15 2.15 2.15
6
Atoms. Timestep: 159
1 0.00184005 0.034185 0.00184005
1 2.15 2.15 0.00184005
1 2.15 0.034185 2.15
2 2.15 0.034185 0.00184005
2 0.00184005 2.15 0.00184005
2 2.15 2.15 2.15
6
Atoms. Timestep: 160
1 0.00184961 0.0344 0.00184961
1 2.15 2.15 0.00184961
1 2.15 0.0344 2.15
2 2.15 0.0344 0.00184961
2 0.00184961 2.15 0.00184961
2 2.15 2.15 2.15
6
Atoms. Timestep: 161
1 0.00185914 0.034615 0.00185914
1 2.15 2.15 0.00185914
1 2.15 0.034615 2.15
2 2.15 0.034615 0.00185914
2 0.00185914 2.15 0.00185914
2 2.15 2.15 2.15
6
Atoms. Timestep: 162
1 0.00186865 0.03483 0.00186865
1 2.15 2.15 0.00186865
1 2.15 0.03483 2.15
2 2.15 0.03483 0.00186865
2 0.00186865 2.15 0.00186865
2 2.15 2.15 2.15
6
Atoms. Timestep: 163
1 0.00187813 0.035045 0.00187813
1 2.15 2.15 0.00187813
1 2.15 0.035045 2.15
2 2.15 0.035045 0.00187813
2 0.00187813 2.15 0.00187813
2 2.15 2.15 2.15
6
Atoms. Timestep: 164
1 0.00188758 0.03526 0.00188758
1 2.15 2.15 0.00188758
1 2.15 0.03526 2.15
2 2.15 0.03526 0.00188758
2 0.00188758 2.15 0.00188758
2 2.15 2.15 2.15
6
Atoms. Timestep: 165
1 0.00189701 0.035475 0.00189701
1 2.15 2.15 0.00189701
1 2.15 0.035475 2.15
2 2.15 0.035475 0.00189701
2 0.00189701 2.15 0.00189701
2 2.15 2.15 2.15
6
Atoms. Timestep: 166
1 0.00190641 0.03569 0.00190641
1 2.15 2.15 0.00190641
1 2.15 0.03569 2.15
2 2.15 0.03569 0.00190641
2 0.00190641 2.15 0.00190641
2 2.15 2.15 2.15
6
Atoms. Timestep: 167
1 0.00191578 0.035905 0.00191578
1 2.15 2.15 0.00191578
1 2.15 0.035905 2.15
2 2.15 0.035905 0.00191578
2 0.00191579 2.15 0.00191578
2 2.15 2.15 2.15
6
Atoms. Timestep: 168
1 0.00192513 0.03612 0.00192513
1 2.15 2.15 0.00192513
1 2.15 0.03612 2.15
2 2.15 0.03612 0.00192513
2 0.00192514 2.15 0.00192513
2 2.15 2.15 2.15
6
Atoms. Timestep: 169
1 0.00193445 0.036335 0.00193445
1 2.15 2.15 0.00193445
1 2.15 0.036335 2.15
2 2.15 0.036335 0.00193445
2 0.00193446 2.15 0.00193445
2 2.15 2.15 2.15
6
Atoms. Timestep: 170
1 0.00194375 0.03655 0.00194375
1 2.15 2.15 0.00194375
1 2.15 0.03655 2.15
2 2.15 0.03655 0.00194375
2 0.00194375 2.15 0.00194375
2 2.15 2.15 2.15
6
Atoms. Timestep: 171
1 0.00195302 0.036765 0.00195302
1 2.15 2.15 0.00195302
1 2.15 0.036765 2.15
2 2.15 0.036765 0.00195302
2 0.00195302 2.15 0.00195302
2 2.15 2.15 2.15
6
Atoms. Timestep: 172
1 0.00196226 0.03698 0.00196226
1 2.15 2.15 0.00196226
1 2.15 0.03698 2.15
2 2.15 0.03698 0.00196226
2 0.00196227 2.15 0.00196226
2 2.15 2.15 2.15
6
Atoms. Timestep: 173
1 0.00197148 0.037195 0.00197148