ITEM: TIMESTEP
0
ITEM: NUMBER OF ATOMS
6
ITEM: BOX BOUNDS xy xz yz pp pp pp
0 4.3 7.71806e-09
0 4.3 7.71806e-09
0 4.3 7.71806e-09
ITEM: ATOMS id type xs ys zs 
1 1 0 0 0 
2 1 0.5 0.5 0 
3 1 0.5 0 0.5 
4 2 0.5 0 0 
5 2 0 0.5 0 
6 2 0.5 0.5 0.5 
ITEM: TIMESTEP
1
ITEM: NUMBER OF ATOMS
6
ITEM: BOX BOUNDS xy xz yz pp pp pp
1.35003e-05 4.29999 7.71644e-09
0.000215 4.29979 7.71695e-09
1.35003e-05 4.29999 7.71717e-09
ITEM: ATOMS id type xs ys zs 
1 1 -1.18191e-21 2.12138e-30 -1.18191e-21 
2 1 0.5 0.5 -7.87943e-22 
3 1 0.5 8.24192e-21 0.5 
4 2 0.5 7.07127e-31 -3.93971e-22 
5 2 -2.8941e-21 0.5 7.87943e-22 
6 2 0.5 0.5 0.5 
ITEM: TIMESTEP
2
ITEM: NUMBER OF ATOMS
6
ITEM: BOX BOUNDS xy xz yz pp pp pp
2.69768e-05 4.29997 7.71483e-09
0.00043 4.29957 7.71585e-09
2.69768e-05 4.29997 7.71628e-09
ITEM: ATOMS id type xs ys zs 
1 1 -5.51563e-21 0 0 
2 1 0.5 0.5 7.87948e-22 
3 1 0.5 2.73921e-21 0.5 
4 2 0.5 -2.82848e-30 1.5759e-21 
5 2 -3.98174e-21 0.5 7.87948e-22 
6 2 0.5 0.5 0.5 
ITEM: TIMESTEP
3
ITEM: NUMBER OF ATOMS
6
ITEM: BOX BOUNDS xy xz yz pp pp pp
4.04296e-05 4.29996 7.71322e-09
0.000645 4.29936 7.71475e-09
4.04296e-05 4.29996 7.71539e-09
ITEM: ATOMS id type xs ys zs 
1 1 -1.10313e-20 0 0 
2 1 0.5 0.5 0 
3 1 0.5 1.23172e-20 0.5 
4 2 0.5 -2.82846e-30 1.5759e-21 
5 2 -9.15089e-21 0.5 0 
6 2 0.5 0.5 0.5 
ITEM: TIMESTEP
4
ITEM: NUMBER OF ATOMS
6
ITEM: BOX BOUNDS xy xz yz pp pp pp
5.38585e-05 4.29995 7.71161e-09
0.00086 4.29914 7.71365e-09
5.38585e-05 4.29995 7.7145e-09
ITEM: ATOMS id type xs ys zs 
1 1 -1.57591e-20 0 0 
2 1 0.5 0.5 1.57591e-21 
3 1 0.5 -1.14978e-22 0.5 
4 2 0.5 -2.82843e-30 1.57591e-21 
5 2 -1.03076e-20 0.5 0 
6 2 0.5 0.5 0.5 
ITEM: TIMESTEP
5
ITEM: NUMBER OF ATOMS
6
ITEM: BOX BOUNDS xy xz yz pp pp pp
6.72635e-05 4.29993 7.70999e-09
0.001075 4.29893 7.71255e-09
6.72635e-05 4.29993 7.71361e-09
ITEM: ATOMS id type xs ys zs 
1 1 -2.20629e-20 0 0 
2 1 0.5 0.5 0 
3 1 0.5 -1.20917e-20 0.5 
4 2 0.5 0 0 
5 2 -1.44505e-20 0.5 0 
6 2 0.5 0.5 0.5 
ITEM: TIMESTEP
6
ITEM: NUMBER OF ATOMS
6
ITEM: BOX BOUNDS xy xz yz pp pp pp
8.06448e-05 4.29992 7.70838e-09
0.00129 4.29871 7.71145e-09
8.06448e-05 4.29992 7.71272e-09
ITEM: ATOMS id type xs ys zs 
1 1 -2.83668e-20 0 0 
2 1 0.5 0.5 -3.15187e-21 
3 1 0.5 -2.85697e-20 0.5 
4 2 0.5 5.65676e-30 -3.15187e-21 
5 2 -1.37569e-20 0.5 0 
6 2 0.5 0.5 0.5 
ITEM: TIMESTEP
7
ITEM: NUMBER OF ATOMS
6
ITEM: BOX BOUNDS xy xz yz pp pp pp
9.40022e-05 4.29991 7.70677e-09
0.001505 4.2985 7.71035e-09
9.40022e-05 4.29991 7.71183e-09
ITEM: ATOMS id type xs ys zs 
1 1 -3.46708e-20 0 0 
2 1 0.5 0.5 -3.15189e-21 
3 1 0.5 -3.57694e-20 0.5 
4 2 0.5 5.65671e-30 -3.15189e-21 
5 2 -1.81682e-20 0.5 0 
6 2 0.5 0.5 0.5 
ITEM: TIMESTEP
8
ITEM: NUMBER OF ATOMS
6
ITEM: BOX BOUNDS xy xz yz pp pp pp
0.000107336 4.29989 7.70515e-09
0.00172 4.29828 7.70925e-09
0.000107336 4.29989 7.71094e-09
ITEM: ATOMS id type xs ys zs 
1 1 -4.09748e-20 0 0 
2 1 0.5 0.5 -3.15191e-21 
3 1 0.5 -1.08998e-20 0.5 
4 2 0.5 5.65666e-30 -3.15191e-21 
5 2 -2.28741e-20 0.5 0 
6 2 0.5 0.5 0.5 
ITEM: TIMESTEP
9
ITEM: NUMBER OF ATOMS
6
ITEM: BOX BOUNDS xy xz yz pp pp pp
0.000120645 4.29988 7.70353e-09
0.001935 4.29807 7.70815e-09
0.000120645 4.29988 7.71005e-09
ITEM: ATOMS id type xs ys zs 
1 1 -4.4127e-20 5.65661e-30 -3.15193e-21 
2 1 0.5 0.5 -3.15193e-21 
3 1 0.5 1.42462e-20 0.5 
4 2 0.5 5.65661e-30 -3.15193e-21 
5 2 -2.98747e-20 0.5 0 
6 2 0.5 0.5 0.5 
ITEM: TIMESTEP
10
ITEM: NUMBER OF ATOMS
6
ITEM: BOX BOUNDS xy xz yz pp pp pp
0.000133931 4.29987 7.70192e-09
0.00215 4.29785 7.70705e-09
0.000133931 4.29987 7.70916e-09
ITEM: ATOMS id type xs ys zs 
1 1 -5.04311e-20 0 0 
2 1 0.5 0.5 0 
3 1 0.5 5.56548e-21 0.5 
4 2 0.5 0 0 
5 2 -3.78161e-20 0.5 0 
6 2 0.5 0.5 0.5 
ITEM: TIMESTEP
11
ITEM: NUMBER OF ATOMS
6
ITEM: BOX BOUNDS xy xz yz pp pp pp
0.000147193 4.29985 7.7003e-09
0.002365 4.29764 7.70595e-09
0.000147193 4.29985 7.70826e-09
ITEM: ATOMS id type xs ys zs 
1 1 -5.67354e-20 0 0 
2 1 0.5 0.5 0 
3 1 0.5 -6.78423e-21 0.5 
4 2 0.5 0 0 
5 2 -4.20313e-20 0.5 0 
6 2 0.5 0.5 0.5 
ITEM: TIMESTEP
12
ITEM: NUMBER OF ATOMS
6
ITEM: BOX BOUNDS xy xz yz pp pp pp
0.000160431 4.29984 7.69869e-09
0.00258 4.29742 7.70484e-09
0.000160431 4.29984 7.70737e-09
ITEM: ATOMS id type xs ys zs 
1 1 -6.30397e-20 0 0 
2 1 0.5 0.5 0 
3 1 0.5 4.24028e-20 0.5 
4 2 0.5 0 0 
5 2 -4.45213e-20 0.5 0 
6 2 0.5 0.5 0.5 
ITEM: TIMESTEP
13
ITEM: NUMBER OF ATOMS
6
ITEM: BOX BOUNDS xy xz yz pp pp pp
0.000173645 4.29983 7.69707e-09
0.002795 4.29721 7.70374e-09
0.000173645 4.29983 7.70648e-09
ITEM: ATOMS id type xs ys zs 
1 1 -6.93441e-20 0 0 
2 1 0.5 0.5 0 
3 1 0.5 2.71572e-20 0.5 
4 2 0.5 0 0 
5 2 -5.01733e-20 0.5 0 
6 2 0.5 0.5 0.5 
ITEM: TIMESTEP
14
ITEM: NUMBER OF ATOMS
6
ITEM: BOX BOUNDS xy xz yz pp pp pp
0.000186835 4.29981 7.69545e-09
0.00301 4.29699 7.70264e-09
0.000186835 4.29981 7.70559e-09
ITEM: ATOMS id type xs ys zs 
1 1 -7.56486e-20 0 0 
2 1 0.5 0.5 0 
3 1 0.5 2.17904e-20 0.5 
4 2 0.5 0 0 
5 2 -5.65532e-20 0.5 0 
6 2 0.5 0.5 0.5 
ITEM: TIMESTEP
15
ITEM: NUMBER OF ATOMS
6
ITEM: BOX BOUNDS xy xz yz pp pp pp
0.000200001 4.2998 7.69383e-09
0.003225 4.29678 7.70154e-09
0.000200001 4.2998 7.70469e-09
ITEM: ATOMS id type xs ys zs 
1 1 -8.19531e-20 0 0 
2 1 0.5 0.5 0 
3 1 0.5 -2.85125e-20 0.5 
4 2 0.5 -1.13126e-29 6.30409e-21 
5 2 -6.26048e-20 0.5 0 
6 2 0.5 0.5 0.5 
ITEM: TIMESTEP
16
ITEM: NUMBER OF ATOMS
6
ITEM: BOX BOUNDS xy xz yz pp pp pp
0.000213144 4.29979 7.69221e-09
0.00344 4.29656 7.70044e-09
0.000213144 4.29979 7.7038e-09
ITEM: ATOMS id type xs ys zs 
1 1 -8.82578e-20 0 0 
2 1 0.5 0.5 0 
3 1 0.5 -1.68793e-20 0.5 
4 2 0.5 -1.13125e-29 6.30413e-21 
5 2 -7.16632e-20 0.5 0 
6 2 0.5 0.5 0.5 
ITEM: TIMESTEP
17
ITEM: NUMBER OF ATOMS
6
ITEM: BOX BOUNDS xy xz yz pp pp pp
0.000226262 4.29977 7.6906e-09
0.003655 4.29635 7.69934e-09
0.000226262 4.29977 7.7029e-09
ITEM: ATOMS id type xs ys zs 
1 1 -1.00867e-19 0 0 
2 1 0.5 0.5 -6.30416e-21 
3 1 0.5 2.0865e-20 0.5 
4 2 0.5 -1.13123e-29 6.30416e-21 
5 2 -7.80351e-20 0.5 0 
6 2 0.5 0.5 0.5 
ITEM: TIMESTEP
18
ITEM: NUMBER OF ATOMS
6
ITEM: BOX BOUNDS xy xz yz pp pp pp
0.000239356 4.29976 7.68898e-09
0.00387 4.29613 7.69824e-09
0.000239356 4.29976 7.70201e-09
ITEM: ATOMS id type xs ys zs 
1 1 -1.07171e-19 0 0 
2 1 0.5 0.5 -6.3042e-21 
3 1 0.5 5.66135e-20 0.5 
4 2 0.5 -1.13122e-29 6.3042e-21 
5 2 -8.14488e-20 0.5 0 
6 2 0.5 0.5 0.5 
ITEM: TIMESTEP
19
ITEM: NUMBER OF ATOMS
6
ITEM: BOX BOUNDS xy xz yz pp pp pp
0.000252426 4.29975 7.68736e-09
0.004085 4.29592 7.69714e-09
0.000252426 4.29975 7.70111e-09
ITEM: ATOMS id type xs ys zs 
1 1 -1.00868e-19 0 0 
2 1 0.5 0.5 0 
3 1 0.5 4.80409e-20 0.5 
4 2 0.5 0 0 
5 2 -7.71965e-20 0.5 0 
6 2 0.5 0.5 0.5 
ITEM: TIMESTEP
20
ITEM: NUMBER OF ATOMS
6
ITEM: BOX BOUNDS xy xz yz pp pp pp
0.000265473 4.29973 7.68574e-09
0.0043 4.2957 7.69604e-09
0.000265473 4.29973 7.70022e-09
ITEM: ATOMS id type xs ys zs 
1 1 -1.00868e-19 0 0 
2 1 0.5 0.5 0 
3 1 0.5 -3.85875e-20 0.5 
4 2 0.5 0 0 
5 2 -7.56357e-20 0.5 0 
6 2 0.5 0.5 0.5 
ITEM: TIMESTEP
21
ITEM: NUMBER OF ATOMS
6
ITEM: BOX BOUNDS xy xz yz pp pp pp
0.000278495 4.29972 7.68411e-09
0.004515 4.29549 7.69493e-09
0.000278495 4.29972 7.69932e-09
ITEM: ATOMS id type xs ys zs 
1 1 -1.00869e-19 0 0 
2 1 0.5 0.5 0 
3 1 0.5 -1.07735e-19 0.5 
4 2 0.5 0 0 
5 2 -8.97448e-20 0.5 0 
6 2 0.5 0.5 0.5 
ITEM: TIMESTEP
22
ITEM: NUMBER OF ATOMS
6
ITEM: BOX BOUNDS xy xz yz pp pp pp
0.000291493 4.29971 7.68249e-09
0.00473 4.29527 7.69383e-09
0.000291493 4.29971 7.69843e-09
ITEM: ATOMS id type xs ys zs 
1 1 -1.0087e-19 0 0 
2 1 0.5 0.5 0 
3 1 0.5 -9.39181e-20 0.5 
4 2 0.5 0 0 
5 2 -1.00821e-19 0.5 0 
6 2 0.5 0.5 0.5 
ITEM: TIMESTEP
23
ITEM: NUMBER OF ATOMS
6
ITEM: BOX BOUNDS xy xz yz pp pp pp
0.000304467 4.2997 7.68087e-09
0.004945 4.29506 7.69273e-09
0.000304467 4.2997 7.69753e-09
ITEM: ATOMS id type xs ys zs 
1 1 -1.0087e-19 0 0 
2 1 0.5 0.5 0 
3 1 0.5 -1.19953e-19 0.5 
4 2 0.5 0 0 
5 2 -1.05137e-19 0.5 0 
6 2 0.5 0.5 0.5 
ITEM: TIMESTEP
24
ITEM: NUMBER OF ATOMS
6
ITEM: BOX BOUNDS xy xz yz pp pp pp
0.000317417 4.29968 7.67925e-09
0.00516 4.29484 7.69163e-09
0.000317417 4.29968 7.69663e-09
ITEM: ATOMS id type xs ys zs 
1 1 -1.00871e-19 0 0 
2 1 0.5 0.5 0 
3 1 0.5 -1.34021e-19 0.5 
4 2 0.5 0 0 
5 2 -9.98384e-20 0.5 0 
6 2 0.5 0.5 0.5 
ITEM: TIMESTEP
25
ITEM: NUMBER OF ATOMS
6
ITEM: BOX BOUNDS xy xz yz pp pp pp
0.000330343 4.29967 7.67762e-09
0.005375 4.29463 7.69053e-09
0.000330343 4.29967 7.69573e-09
ITEM: ATOMS id type xs ys zs 
1 1 -1.00872e-19 0 0 
2 1 0.5 0.5 0 
3 1 0.5 -5.32918e-20 0.5 
4 2 0.5 0 0 
5 2 -9.92365e-20 0.5 0 
6 2 0.5 0.5 0.5 
ITEM: TIMESTEP
26
ITEM: NUMBER OF ATOMS
6
ITEM: BOX BOUNDS xy xz yz pp pp pp
0.000343245 4.29966 7.676e-09
0.00559 4.29441 7.68943e-09
0.000343245 4.29966 7.69484e-09
ITEM: ATOMS id type xs ys zs 
1 1 -1.00872e-19 0 0 
2 1 0.5 0.5 0 
3 1 0.5 6.16994e-21 0.5 
4 2 0.5 0 0 
5 2 -1.03671e-19 0.5 0 
6 2 0.5 0.5 0.5 
ITEM: TIMESTEP
27
ITEM: NUMBER OF ATOMS
6
ITEM: BOX BOUNDS xy xz yz pp pp pp
0.000356123 4.29964 7.67438e-09
0.005805 4.2942 7.68833e-09
0.000356123 4.29964 7.69394e-09
ITEM: ATOMS id type xs ys zs 
1 1 -1.13482e-19 0 0 
2 1 0.5 0.5 0 
3 1 0.5 -9.13726e-20 0.5 
4 2 0.5 0 0 
5 2 -1.03157e-19 0.5 0 
6 2 0.5 0.5 0.5 
ITEM: TIMESTEP
28
ITEM: NUMBER OF ATOMS
6
ITEM: BOX BOUNDS xy xz yz pp pp pp
0.000368977 4.29963 7.67275e-09
0.00602 4.29398 7.68723e-09
0.000368977 4.29963 7.69304e-09
ITEM: ATOMS id type xs ys zs 
1 1 -1.26092e-19 0 0 
2 1 0.5 0.5 0 
3 1 0.5 -6.08599e-20 0.5 
4 2 0.5 0 0 
5 2 -1.08629e-19 0.5 0 
6 2 0.5 0.5 0.5 
ITEM: TIMESTEP
29
ITEM: NUMBER OF ATOMS
6
ITEM: BOX BOUNDS xy xz yz pp pp pp
0.000381807 4.29962 7.67113e-09
0.006235 4.29377 7.68613e-09
0.000381807 4.29962 7.69214e-09
ITEM: ATOMS id type xs ys zs 
1 1 -1.38702e-19 0 0 
2 1 0.5 0.5 0 
3 1 0.5 -3.53078e-20 0.5 
4 2 0.5 0 0 
5 2 -1.08687e-19 0.5 0 
6 2 0.5 0.5 0.5 
ITEM: TIMESTEP
30
ITEM: NUMBER OF ATOMS
6
ITEM: BOX BOUNDS xy xz yz pp pp pp
0.000394612 4.29961 7.6695e-09
0.00645 4.29355 7.68502e-09
0.000394612 4.29961 7.69124e-09
ITEM: ATOMS id type xs ys zs 
1 1 -1.51312e-19 0 0 
2 1 0.5 0.5 0 
3 1 0.5 3.63343e-20 0.5 
4 2 0.5 0 0 
5 2 -1.07158e-19 0.5 0 
6 2 0.5 0.5 0.5 
ITEM: TIMESTEP
31
ITEM: NUMBER OF ATOMS
6
ITEM: BOX BOUNDS xy xz yz pp pp pp
0.000407394 4.29959 7.66788e-09
0.006665 4.29334 7.68392e-09
0.000407394 4.29959 7.69034e-09
ITEM: ATOMS id type xs ys zs 
1 1 -1.63922e-19 0 0 
2 1 0.5 0.5 0 
3 1 0.5 5.71503e-20 0.5 
4 2 0.5 0 0 
5 2 -1.03643e-19 0.5 0 
6 2 0.5 0.5 0.5 
ITEM: TIMESTEP
32
ITEM: NUMBER OF ATOMS
6
ITEM: BOX BOUNDS xy xz yz pp pp pp
0.000420151 4.29958 7.66625e-09
0.00688 4.29312 7.68282e-09
0.000420151 4.29958 7.68944e-09
ITEM: ATOMS id type xs ys zs 
1 1 -1.76533e-19 0 0 
2 1 0.5 0.5 0 
3 1 0.5 1.15094e-19 0.5 
4 2 0.5 0 0 
5 2 -9.92722e-20 0.5 0 
6 2 0.5 0.5 0.5 
ITEM: TIMESTEP
33
ITEM: NUMBER OF ATOMS
6
ITEM: BOX BOUNDS xy xz yz pp pp pp
0.000432884 4.29957 7.66462e-09
0.007095 4.29291 7.68172e-09
0.000432884 4.29957 7.68854e-09
ITEM: ATOMS id type xs ys zs 
1 1 -1.89143e-19 0 0 
2 1 0.5 0.5 0 
3 1 0.5 4.71574e-20 0.5 
4 2 0.5 0 0 
5 2 -1.04589e-19 0.5 0 
6 2 0.5 0.5 0.5 
ITEM: TIMESTEP
34
ITEM: NUMBER OF ATOMS
6
ITEM: BOX BOUNDS xy xz yz pp pp pp
0.000445593 4.29955 7.663e-09
0.00731 4.29269 7.68062e-09
0.000445593 4.29955 7.68764e-09
ITEM: ATOMS id type xs ys zs 
1 1 -2.01754e-19 0 0 
2 1 0.5 0.5 0 
3 1 0.5 1.38384e-19 0.5 
4 2 0.5 0 0 
5 2 -1.04229e-19 0.5 0 
6 2 0.5 0.5 0.5 
ITEM: TIMESTEP
35
ITEM: NUMBER OF ATOMS
6
ITEM: BOX BOUNDS xy xz yz pp pp pp
0.000458277 4.29954 7.66137e-09
0.007525 4.29248 7.67952e-09
0.000458277 4.29954 7.68674e-09
ITEM: ATOMS id type xs ys zs 
1 1 -2.14365e-19 0 0 
2 1 0.5 0.5 0 
3 1 0.5 8.08913e-20 0.5 
4 2 0.5 0 0 
5 2 -9.92322e-20 0.5 0 
6 2 0.5 0.5 0.5 
ITEM: TIMESTEP
36
ITEM: NUMBER OF ATOMS
6
ITEM: BOX BOUNDS xy xz yz pp pp pp
0.000470938 4.29953 7.65974e-09
0.00774 4.29226 7.67842e-09
0.000470938 4.29953 7.68583e-09
ITEM: ATOMS id type xs ys zs 
1 1 -2.26976e-19 0 0 
2 1 0.5 0.5 0 
3 1 0.5 1.36937e-19 0.5 
4 2 0.5 0 0 
5 2 -1.04081e-19 0.5 0 
6 2 0.5 0.5 0.5 
ITEM: TIMESTEP
37
ITEM: NUMBER OF ATOMS
6
ITEM: BOX BOUNDS xy xz yz pp pp pp
0.000483574 4.29952 7.65811e-09
0.007955 4.29205 7.67732e-09
0.000483574 4.29952 7.68493e-09
ITEM: ATOMS id type xs ys zs 
1 1 -2.39587e-19 0 0 
2 1 0.5 0.5 0 
3 1 0.5 1.7972e-19 0.5 
4 2 0.5 0 0 
5 2 -1.0548e-19 0.5 0 
6 2 0.5 0.5 0.5 
ITEM: TIMESTEP
38
ITEM: NUMBER OF ATOMS
6
ITEM: BOX BOUNDS xy xz yz pp pp pp
0.000496186 4.2995 7.65648e-09
0.00817 4.29183 7.67622e-09
0.000496186 4.2995 7.68403e-09
ITEM: ATOMS id type xs ys zs 
1 1 -2.26978e-19 0 0 
2 1 0.5 0.5 0 
3 1 0.5 8.55721e-20 0.5 
4 2 0.5 0 0 
5 2 -1.13451e-19 0.5 0 
6 2 0.5 0.5 0.5 
ITEM: TIMESTEP
39
ITEM: NUMBER OF ATOMS
6
ITEM: BOX BOUNDS xy xz yz pp pp pp
0.000508774 4.29949 7.65485e-09
0.008385 4.29162 7.67511e-09
0.000508774 4.29949 7.68313e-09
ITEM: ATOMS id type xs ys zs 
1 1 -2.522e-19 0 0 
2 1 0.5 0.5 0 
3 1 0.5 -5.10803e-20 0.5 
4 2 0.5 0 0 
5 2 -1.08917e-19 0.5 0 
6 2 0.5 0.5 0.5 
ITEM: TIMESTEP
40
ITEM: NUMBER OF ATOMS
6
ITEM: BOX BOUNDS xy xz yz pp pp pp
0.000521337 4.29948 7.65322e-09
0.0086 4.2914 7.67401e-09
0.000521337 4.29948 7.68222e-09
ITEM: ATOMS id type xs ys zs 
1 1 -2.52201e-19 0 0 
2 1 0.5 0.5 0 
3 1 0.5 -1.81669e-19 0.5 
4 2 0.5 0 0 
5 2 -9.86755e-20 0.5 0 
6 2 0.5 0.5 0.5 
ITEM: TIMESTEP
41
ITEM: NUMBER OF ATOMS
6
ITEM: BOX BOUNDS xy xz yz pp pp pp
0.000533876 4.29947 7.65159e-09
0.008815 4.29119 7.67291e-09
0.000533876 4.29947 7.68132e-09
ITEM: ATOMS id type xs ys zs 
1 1 -2.52203e-19 0 0 
2 1 0.5 0.5 0 
3 1 0.5 -2.09792e-19 0.5 
4 2 0.5 0 0 
5 2 -1.02994e-19 0.5 0 
6 2 0.5 0.5 0.5 
ITEM: TIMESTEP
42
ITEM: NUMBER OF ATOMS
6
ITEM: BOX BOUNDS xy xz yz pp pp pp
0.000546391 4.29945 7.64996e-09
0.00903 4.29097 7.67181e-09
0.000546391 4.29945 7.68041e-09
ITEM: ATOMS id type xs ys zs 
1 1 -2.52204e-19 0 0 
2 1 0.5 0.5 0 
3 1 0.5 -6.34201e-20 0.5 
4 2 0.5 0 0 
5 2 -1.02982e-19 0.5 0 
6 2 0.5 0.5 0.5 
ITEM: TIMESTEP
43
ITEM: NUMBER OF ATOMS
6
ITEM: BOX BOUNDS xy xz yz pp pp pp
0.000558882 4.29944 7.64833e-09
0.009245 4.29076 7.67071e-09
0.000558882 4.29944 7.67951e-09
ITEM: ATOMS id type xs ys zs 
1 1 -2.52206e-19 0 0 
2 1 0.5 0.5 0 
3 1 0.5 -9.10052e-20 0.5 
4 2 0.5 0 0 
5 2 -1.08895e-19 0.5 0 
6 2 0.5 0.5 0.5 
ITEM: TIMESTEP
44
ITEM: NUMBER OF ATOMS
6
ITEM: BOX BOUNDS xy xz yz pp pp pp
0.000571348 4.29943 7.6467e-09
0.00946 4.29054 7.66961e-09
0.000571348 4.29943 7.6786e-09
ITEM: ATOMS id type xs ys zs 
1 1 -2.52207e-19 0 0 
2 1 0.5 0.5 0 
3 1 0.5 -1.99972e-19 0.5 
4 2 0.5 0 0 
5 2 -1.1685e-19 0.5 0 
6 2 0.5 0.5 0.5 
ITEM: TIMESTEP
45
ITEM: NUMBER OF ATOMS
6
ITEM: BOX BOUNDS xy xz yz pp pp pp
0.00058379 4.29942 7.64506e-09
0.009675 4.29033 7.66851e-09
0.00058379 4.29942 7.6777e-09
ITEM: ATOMS id type xs ys zs 
1 1 -2.52209e-19 0 0 
2 1 0.5 0.5 0 
3 1 0.5 -3.06763e-19 0.5 
4 2 0.5 0 0 
5 2 -1.25127e-19 0.5 0 
6 2 0.5 0.5 0.5 
ITEM: TIMESTEP
46
ITEM: NUMBER OF ATOMS
6
ITEM: BOX BOUNDS xy xz yz pp pp pp
0.000596208 4.2994 7.64343e-09
0.00989 4.29011 7.6674e-09
0.000596208 4.2994 7.67679e-09
ITEM: ATOMS id type xs ys zs 
1 1 -2.5221e-19 0 0 
2 1 0.5 0.5 0 
3 1 0.5 -3.40589e-19 0.5 
4 2 0.5 0 0 
5 2 -1.12908e-19 0.5 0 
6 2 0.5 0.5 0.5 
ITEM: TIMESTEP
47
ITEM: NUMBER OF ATOMS
6
ITEM: BOX BOUNDS xy xz yz pp pp pp
0.000608601 4.29939 7.6418e-09
0.010105 4.2899 7.6663e-09
0.000608601 4.29939 7.67589e-09
ITEM: ATOMS id type xs ys zs 
1 1 -2.52211e-19 0 0 
2 1 0.5 0.5 0 
3 1 0.5 -2.24113e-19 0.5 
4 2 0.5 0 0 
5 2 -1.09168e-19 0.5 0 
6 2 0.5 0.5 0.5 
ITEM: TIMESTEP
48
ITEM: NUMBER OF ATOMS
6
ITEM: BOX BOUNDS xy xz yz pp pp pp
0.00062097 4.29938 7.64016e-09
0.01032 4.28968 7.6652e-09
0.00062097 4.29938 7.67498e-09
ITEM: ATOMS id type xs ys zs 
1 1 -2.52213e-19 0 0 
2 1 0.5 0.5 0 
3 1 0.5 -2.70347e-19 0.5 
4 2 0.5 0 0 
5 2 -1.11155e-19 0.5 0 
6 2 0.5 0.5 0.5 
ITEM: TIMESTEP
49
ITEM: NUMBER OF ATOMS
6
ITEM: BOX BOUNDS xy xz yz pp pp pp
0.000633315 4.29937 7.63853e-09
0.010535 4.28947 7.6641e-09
0.000633315 4.29937 7.67407e-09
ITEM: ATOMS id type xs ys zs 
1 1 -2.52214e-19 0 0 
2 1 0.5 0.5 0 
3 1 0.5 -4.09128e-19 0.5 
4 2 0.5 0 0 
5 2 -1.13433e-19 0.5 0 
6 2 0.5 0.5 0.5 
ITEM: TIMESTEP
50
ITEM: NUMBER OF ATOMS
6
ITEM: BOX BOUNDS xy xz yz pp pp pp
0.000645635 4.29935 7.63689e-09
0.01075 4.28925 7.663e-09
0.000645635 4.29935 7.67316e-09
ITEM: ATOMS id type xs ys zs 
1 1 -2.52216e-19 0 0 
2 1 0.5 0.5 0 
3 1 0.5 -5.66477e-19 0.5 
4 2 0.5 0 0 
5 2 -1.16023e-19 0.5 0 
6 2 0.5 0.5 0.5 
ITEM: TIMESTEP
51
ITEM: NUMBER OF ATOMS
6
ITEM: BOX BOUNDS xy xz yz pp pp pp
0.000657931 4.29934 7.63526e-09
0.010965 4.28904 7.6619e-09
0.000657931 4.29934 7.67226e-09
ITEM: ATOMS id type xs ys zs 
1 1 -2.52217e-19 0 0 
2 1 0.5 0.5 0 
3 1 0.5 -6.67652e-19 0.5 
4 2 0.5 0 0 
5 2 -1.13982e-19 0.5 0 
6 2 0.5 0.5 0.5 
ITEM: TIMESTEP
52
ITEM: NUMBER OF ATOMS
6
ITEM: BOX BOUNDS xy xz yz pp pp pp
0.000670202 4.29933 7.63362e-09
0.01118 4.28882 7.66079e-09
0.000670202 4.29933 7.67135e-09
ITEM: ATOMS id type xs ys zs 
1 1 -2.52219e-19 0 0 
2 1 0.5 0.5 0 
3 1 0.5 -6.21462e-19 0.5 
4 2 0.5 0 0 
5 2 -1.03367e-19 0.5 0 
6 2 0.5 0.5 0.5 
ITEM: TIMESTEP
53
ITEM: NUMBER OF ATOMS
6
ITEM: BOX BOUNDS xy xz yz pp pp pp
0.000682449 4.29932 7.63198e-09
0.011395 4.28861 7.65969e-09
0.000682449 4.29932 7.67044e-09
ITEM: ATOMS id type xs ys zs 
1 1 -2.5222e-19 0 0 
2 1 0.5 0.5 0 
3 1 0.5 -7.60226e-19 0.5 
4 2 0.5 0 0 
5 2 -9.37027e-20 0.5 0 
6 2 0.5 0.5 0.5 
ITEM: TIMESTEP
54
ITEM: NUMBER OF ATOMS
6
ITEM: BOX BOUNDS xy xz yz pp pp pp
0.000694671 4.29931 7.63035e-09
0.01161 4.28839 7.65859e-09
0.000694671 4.29931 7.66953e-09
ITEM: ATOMS id type xs ys zs 
1 1 -2.52222e-19 0 0 
2 1 0.5 0.5 0 
3 1 0.5 -5.95889e-19 0.5 
4 2 0.5 0 0 
5 2 -8.23519e-20 0.5 0 
6 2 0.5 0.5 0.5 
ITEM: TIMESTEP
55
ITEM: NUMBER OF ATOMS
6
ITEM: BOX BOUNDS xy xz yz pp pp pp
0.000706869 4.29929 7.62871e-09
0.011825 4.28818 7.65749e-09
0.000706869 4.29929 7.66862e-09
ITEM: ATOMS id type xs ys zs 
1 1 -2.77445e-19 0 0 
2 1 0.5 0.5 0 
3 1 0.5 -4.69738e-19 0.5 
4 2 0.5 0 0 
5 2 -9.24804e-20 0.5 0 
6 2 0.5 0.5 0.5 
ITEM: TIMESTEP
56
ITEM: NUMBER OF ATOMS
6
ITEM: BOX BOUNDS xy xz yz pp pp pp
0.000719043 4.29928 7.62707e-09
0.01204 4.28796 7.65639e-09
0.000719043 4.29928 7.66771e-09
ITEM: ATOMS id type xs ys zs 
1 1 -2.77447e-19 0 0 
2 1 0.5 0.5 0 
3 1 0.5 -2.70979e-19 0.5 
4 2 0.5 0 0 
5 2 -9.07986e-20 0.5 0 
6 2 0.5 0.5 0.5 
ITEM: TIMESTEP
57
ITEM: NUMBER OF ATOMS
6
ITEM: BOX BOUNDS xy xz yz pp pp pp
0.000731192 4.29927 7.62543e-09
0.012255 4.28775 7.65529e-09
0.000731192 4.29927 7.6668e-09
ITEM: ATOMS id type xs ys zs 
1 1 -2.77448e-19 0 0 
2 1 0.5 0.5 0 
3 1 0.5 -3.47102e-19 0.5 
4 2 0.5 0 0 
5 2 -1.02605e-19 0.5 0 
6 2 0.5 0.5 0.5 
ITEM: TIMESTEP
58
ITEM: NUMBER OF ATOMS
6
ITEM: BOX BOUNDS xy xz yz pp pp pp
0.000743316 4.29926 7.62379e-09
0.01247 4.28753 7.65418e-09
0.000743316 4.29926 7.66589e-09
ITEM: ATOMS id type xs ys zs 
1 1 -2.7745e-19 0 0 
2 1 0.5 0.5 0 
3 1 0.5 -2.15841e-19 0.5 
4 2 0.5 0 0 
5 2 -1.06351e-19 0.5 0 
6 2 0.5 0.5 0.5 
ITEM: TIMESTEP
59
ITEM: NUMBER OF ATOMS
6
ITEM: BOX BOUNDS xy xz yz pp pp pp
0.000755416 4.29924 7.62215e-09
0.012685 4.28732 7.65308e-09
0.000755416 4.29924 7.66498e-09
ITEM: ATOMS id type xs ys zs 
1 1 -2.77452e-19 0 0 
2 1 0.5 0.5 0 
3 1 0.5 -1.99247e-19 0.5 
4 2 0.5 0 0 
5 2 -1.03944e-19 0.5 0 
6 2 0.5 0.5 0.5 
ITEM: TIMESTEP
60
ITEM: NUMBER OF ATOMS
6
ITEM: BOX BOUNDS xy xz yz pp pp pp
0.000767492 4.29923 7.62051e-09
0.0129 4.2871 7.65198e-09
0.000767492 4.29923 7.66406e-09
ITEM: ATOMS id type xs ys zs 
1 1 -2.77453e-19 0 0 
2 1 0.5 0.5 0 
3 1 0.5 -2.09893e-19 0.5 
4 2 0.5 0 0 
5 2 -1.12209e-19 0.5 0 
6 2 0.5 0.5 0.5 
ITEM: TIMESTEP
61
ITEM: NUMBER OF ATOMS
6
ITEM: BOX BOUNDS xy xz yz pp pp pp
0.000779543 4.29922 7.61887e-09
0.013115 4.28689 7.65088e-09
0.000779543 4.29922 7.66315e-09
ITEM: ATOMS id type xs ys zs 
1 1 -2.77455e-19 0 0 
2 1 0.5 0.5 0 
3 1 0.5 -1.74418e-19 0.5 
4 2 0.5 0 0 
5 2 -1.10687e-19 0.5 0 
6 2 0.5 0.5 0.5 
ITEM: TIMESTEP
62
ITEM: NUMBER OF ATOMS
6
ITEM: BOX BOUNDS xy xz yz pp pp pp
0.000791569 4.29921 7.61723e-09
0.01333 4.28667 7.64978e-09
0.000791569 4.29921 7.66224e-09
ITEM: ATOMS id type xs ys zs 
1 1 -2.77456e-19 0 0 
2 1 0.5 0.5 0 
3 1 0.5 1.26727e-20 0.5 
4 2 0.5 0 0 
5 2 -1.06566e-19 0.5 0 
6 2 0.5 0.5 0.5 
ITEM: TIMESTEP
63
ITEM: NUMBER OF ATOMS
6
ITEM: BOX BOUNDS xy xz yz pp pp pp
0.000803571 4.2992 7.61559e-09
0.013545 4.28646 7.64868e-09
0.000803571 4.2992 7.66133e-09
ITEM: ATOMS id type xs ys zs 
1 1 -3.02681e-19 0 0 
2 1 0.5 0.5 0 
3 1 0.5 9.75753e-21 0.5 
4 2 0.5 0 0 
5 2 -1.02361e-19 0.5 0 
6 2 0.5 0.5 0.5 
ITEM: TIMESTEP
64
ITEM: NUMBER OF ATOMS
6
ITEM: BOX BOUNDS xy xz yz pp pp pp
0.000815548 4.29918 7.61394e-09
0.01376 4.28624 7.64757e-09
0.000815548 4.29918 7.66041e-09
ITEM: ATOMS id type xs ys zs 
1 1 -3.02683e-19 0 0 
2 1 0.5 0.5 0 
3 1 0.5 -1.0378e-19 0.5 
4 2 0.5 0 0 
5 2 -9.85775e-20 0.5 0 
6 2 0.5 0.5 0.5 
ITEM: TIMESTEP
65
ITEM: NUMBER OF ATOMS
6
ITEM: BOX BOUNDS xy xz yz pp pp pp
0.000827501 4.29917 7.6123e-09
0.013975 4.28603 7.64647e-09
0.000827501 4.29917 7.6595e-09
ITEM: ATOMS id type xs ys zs 
1 1 -3.02685e-19 0 0 
2 1 0.5 0.5 0 
3 1 0.5 -2.45825e-19 0.5 
4 2 0.5 0 0 
5 2 -8.68833e-20 0.5 0 
6 2 0.5 0.5 0.5 
ITEM: TIMESTEP
66
ITEM: NUMBER OF ATOMS
6
ITEM: BOX BOUNDS xy xz yz pp pp pp
0.000839429 4.29916 7.61066e-09
0.01419 4.28581 7.64537e-09
0.000839429 4.29916 7.65858e-09
ITEM: ATOMS id type xs ys zs 
1 1 -3.2791e-19 0 0 
2 1 0.5 0.5 0 
3 1 0.5 -3.48767e-19 0.5 
4 2 0.5 0 0 
5 2 -9.58897e-20 0.5 0 
6 2 0.5 0.5 0.5 
ITEM: TIMESTEP
67
ITEM: NUMBER OF ATOMS
6
ITEM: BOX BOUNDS xy xz yz pp pp pp
0.000851332 4.29915 7.60901e-09
0.014405 4.2856 7.64427e-09
0.000851332 4.29915 7.65767e-09
ITEM: ATOMS id type xs ys zs 
1 1 -3.27912e-19 0 0 
2 1 0.5 0.5 0 
3 1 0.5 -3.10045e-19 0.5 
4 2 0.5 0 0 
5 2 -9.67713e-20 0.5 0 
6 2 0.5 0.5 0.5 
ITEM: TIMESTEP
68
ITEM: NUMBER OF ATOMS
6
ITEM: BOX BOUNDS xy xz yz pp pp pp
0.000863211 4.29914 7.60737e-09
0.01462 4.28538 7.64317e-09
0.000863211 4.29914 7.65675e-09
ITEM: ATOMS id type xs ys zs 
1 1 -3.27914e-19 0 0 
2 1 0.5 0.5 0 
3 1 0.5 -4.63304e-19 0.5 
4 2 0.5 0 0 
5 2 -8.83445e-20 0.5 0 
6 2 0.5 0.5 0.5 
ITEM: TIMESTEP
69
ITEM: NUMBER OF ATOMS
6
ITEM: BOX BOUNDS xy xz yz pp pp pp
0.000875065 4.29912 7.60572e-09
0.014835 4.28517 7.64206e-09
0.000875065 4.29912 7.65584e-09
ITEM: ATOMS id type xs ys zs 
1 1 -3.27916e-19 0 0 
2 1 0.5 0.5 0 
3 1 0.5 -3.24468e-19 0.5 
4 2 0.5 0 0 
5 2 -9.39765e-20 0.5 0 
6 2 0.5 0.5 0.5 
ITEM: TIMESTEP
70
ITEM: NUMBER OF ATOMS
6
ITEM: BOX BOUNDS xy xz yz pp pp pp
0.000886894 4.29911 7.60408e-09
0.01505 4.28495 7.64096e-09
0.000886894 4.29911 7.65492e-09
ITEM: ATOMS id type xs ys zs 
1 1 -3.27917e-19 0 0 
2 1 0.5 0.5 0 
3 1 0.5 -1.95954e-19 0.5 
4 2 0.5 0 0 
5 2 -1.02624e-19 0.5 0 
6 2 0.5 0.5 0.5 
ITEM: TIMESTEP
71
ITEM: NUMBER OF ATOMS
6
ITEM: BOX BOUNDS xy xz yz pp pp pp
0.000898699 4.2991 7.60243e-09
0.015265 4.28474 7.63986e-09
0.000898699 4.2991 7.65401e-09
ITEM: ATOMS id type xs ys zs 
1 1 -3.53144e-19 0 0 
2 1 0.5 0.5 0 
3 1 0.5 -1.6326e-20 0.5 
4 2 0.5 0 0 
5 2 -1.14992e-19 0.5 0 
6 2 0.5 0.5 0.5 
ITEM: TIMESTEP
72
ITEM: NUMBER OF ATOMS
6
ITEM: BOX BOUNDS xy xz yz pp pp pp
0.000910479 4.29909 7.60079e-09
0.01548 4.28452 7.63876e-09
0.000910479 4.29909 7.65309e-09
ITEM: ATOMS id type xs ys zs 
1 1 -3.7837e-19 0 0 
2 1 0.5 0.5 0 
3 1 0.5 -8.72047e-20 0.5 
4 2 0.5 0 0 
5 2 -1.1513e-19 0.5 0 
6 2 0.5 0.5 0.5 
ITEM: TIMESTEP
73
ITEM: NUMBER OF ATOMS
6
ITEM: BOX BOUNDS xy xz yz pp pp pp
0.000922234 4.29908 7.59914e-09
0.015695 4.28431 7.63765e-09
0.000922234 4.29908 7.65217e-09
ITEM: ATOMS id type xs ys zs 
1 1 -3.78372e-19 0 0 
2 1 0.5 0.5 0 
3 1 0.5 4.37065e-20 0.5 
4 2 0.5 0 0 
5 2 -1.08264e-19 0.5 0 
6 2 0.5 0.5 0.5 
ITEM: TIMESTEP
74
ITEM: NUMBER OF ATOMS
6
ITEM: BOX BOUNDS xy xz yz pp pp pp
0.000933965 4.29907 7.59749e-09
0.01591 4.28409 7.63655e-09
0.000933965 4.29907 7.65125e-09
ITEM: ATOMS id type xs ys zs 
1 1 -4.03599e-19 0 0 
2 1 0.5 0.5 0 
3 1 0.5 -3.08366e-19 0.5 
4 2 0.5 0 0 
5 2 -1.03272e-19 0.5 0 
6 2 0.5 0.5 0.5 
ITEM: TIMESTEP
75
ITEM: NUMBER OF ATOMS
6
ITEM: BOX BOUNDS xy xz yz pp pp pp
0.00094567 4.29905 7.59584e-09
0.016125 4.28388 7.63545e-09
0.00094567 4.29905 7.65034e-09
ITEM: ATOMS id type xs ys zs 
1 1 -4.28827e-19 0 0 
2 1 0.5 0.5 0 
3 1 0.5 -6.79904e-19 0.5 
4 2 0.5 0 0 
5 2 -1.08585e-19 0.5 0 
6 2 0.5 0.5 0.5 
ITEM: TIMESTEP
76
ITEM: NUMBER OF ATOMS
6
ITEM: BOX BOUNDS xy xz yz pp pp pp
0.000957351 4.29904 7.5942e-09
0.01634 4.28366 7.63435e-09
0.000957351 4.29904 7.64942e-09
ITEM: ATOMS id type xs ys zs 
1 1 -4.54054e-19 0 0 
2 1 0.5 0.5 0 
3 1 0.5 -9.80535e-19 0.5 
4 2 0.5 0 0 
5 2 -1.02633e-19 0.5 0 
6 2 0.5 0.5 0.5 
ITEM: TIMESTEP
77
ITEM: NUMBER OF ATOMS
6
ITEM: BOX BOUNDS xy xz yz pp pp pp
0.000969008 4.29903 7.59255e-09
0.016555 4.28345 7.63324e-09
0.000969008 4.29903 7.6485e-09
ITEM: ATOMS id type xs ys zs 
1 1 -4.79282e-19 0 0 
2 1 0.5 0.5 0 
3 1 0.5 -1.12859e-18 0.5 
4 2 0.5 0 0 
5 2 -1.03692e-19 0.5 0 
6 2 0.5 0.5 0.5 
ITEM: TIMESTEP
78
ITEM: NUMBER OF ATOMS
6
ITEM: BOX BOUNDS xy xz yz pp pp pp
0.000980639 4.29902 7.5909e-09
0.01677 4.28323 7.63214e-09
0.000980639 4.29902 7.64758e-09
ITEM: ATOMS id type xs ys zs 
1 1 -4.54059e-19 0 0 
2 1 0.5 0.5 0 
3 1 0.5 -1.02607e-18 0.5 
4 2 0.5 0 0 
5 2 -1.16621e-19 0.5 0 
6 2 0.5 0.5 0.5 
ITEM: TIMESTEP
79
ITEM: NUMBER OF ATOMS
6
ITEM: BOX BOUNDS xy xz yz pp pp pp
0.000992246 4.29901 7.58925e-09
0.016985 4.28302 7.63104e-09
0.000992246 4.29901 7.64666e-09
ITEM: ATOMS id type xs ys zs 
1 1 -4.54062e-19 0 0 
2 1 0.5 0.5 0 
3 1 0.5 -1.41065e-18 0.5 
4 2 0.5 0 0 
5 2 -1.08069e-19 0.5 0 
6 2 0.5 0.5 0.5 
ITEM: TIMESTEP
80
ITEM: NUMBER OF ATOMS
6
ITEM: BOX BOUNDS xy xz yz pp pp pp
0.00100383 4.299 7.5876e-09
0.0172 4.2828 7.62994e-09
0.00100383 4.299 7.64574e-09
ITEM: ATOMS id type xs ys zs 
1 1 -4.54064e-19 0 0 
2 1 0.5 0.5 0 
3 1 0.5 -1.38257e-18 0.5 
4 2 0.5 0 0 
5 2 -1.0209e-19 0.5 0 
6 2 0.5 0.5 0.5 
ITEM: TIMESTEP
81
ITEM: NUMBER OF ATOMS
6
ITEM: BOX BOUNDS xy xz yz pp pp pp
0.00101538 4.29898 7.58594e-09
0.017415 4.28259 7.62883e-09
0.00101538 4.29898 7.64482e-09
ITEM: ATOMS id type xs ys zs 
1 1 -4.54067e-19 0 0 
2 1 0.5 0.5 0 
3 1 0.5 -1.68389e-18 0.5 
4 2 0.5 0 0 
5 2 -8.0433e-20 0.5 0 
6 2 0.5 0.5 0.5 
ITEM: TIMESTEP
82
ITEM: NUMBER OF ATOMS
6
ITEM: BOX BOUNDS xy xz yz pp pp pp
0.00102692 4.29897 7.58429e-09
0.01763 4.28237 7.62773e-09
0.00102692 4.29897 7.6439e-09
ITEM: ATOMS id type xs ys zs 
1 1 -4.54069e-19 0 0 
2 1 0.5 0.5 0 
3 1 0.5 -1.39284e-18 0.5 
4 2 0.5 0 0 
5 2 -1.0249e-19 0.5 0 
6 2 0.5 0.5 0.5 
ITEM: TIMESTEP
83
ITEM: NUMBER OF ATOMS
6
ITEM: BOX BOUNDS xy xz yz pp pp pp
0.00103842 4.29896 7.58264e-09
0.017845 4.28216 7.62663e-09
0.00103842 4.29896 7.64297e-09
ITEM: ATOMS id type xs ys zs 
1 1 -4.54071e-19 0 0 
2 1 0.5 0.5 0 
3 1 0.5 -1.2488e-18 0.5 
4 2 0.5 0 0 
5 2 -1.02466e-19 0.5 0 
6 2 0.5 0.5 0.5 
ITEM: TIMESTEP
84
ITEM: NUMBER OF ATOMS
6
ITEM: BOX BOUNDS xy xz yz pp pp pp
0.00104991 4.29895 7.58099e-09
0.01806 4.28194 7.62553e-09
0.00104991 4.29895 7.64205e-09
ITEM: ATOMS id type xs ys zs 
1 1 -4.54074e-19 0 0 
2 1 0.5 0.5 0 
3 1 0.5 -1.17613e-18 0.5 
4 2 0.5 0 0 
5 2 -9.11987e-20 0.5 0 
6 2 0.5 0.5 0.5 
ITEM: TIMESTEP
85
ITEM: NUMBER OF ATOMS
6
ITEM: BOX BOUNDS xy xz yz pp pp pp
0.00106138 4.29894 7.57934e-09
0.018275 4.28173 7.62442e-09
0.00106138 4.29894 7.64113e-09
ITEM: ATOMS id type xs ys zs 
1 1 -4.54076e-19 0 0 
2 1 0.5 0.5 0 
3 1 0.5 -1.32029e-18 0.5 
4 2 0.5 0 0 
5 2 -8.3423e-20 0.5 0 
6 2 0.5 0.5 0.5 
ITEM: TIMESTEP
86
ITEM: NUMBER OF ATOMS
6
ITEM: BOX BOUNDS xy xz yz pp pp pp
0.00107282 4.29893 7.57768e-09
0.01849 4.28151 7.62332e-09
0.00107282 4.29893 7.64021e-09
ITEM: ATOMS id type xs ys zs 
1 1 -4.54079e-19 0 0 
2 1 0.5 0.5 0 
3 1 0.5 -1.40248e-18 0.5 
4 2 0.5 0 0 
5 2 -6.72204e-20 0.5 0 
6 2 0.5 0.5 0.5 
ITEM: TIMESTEP
87
ITEM: NUMBER OF ATOMS
6
ITEM: BOX BOUNDS xy xz yz pp pp pp
0.00108424 4.29892 7.57603e-09
0.018705 4.2813 7.62222e-09
0.00108424 4.29892 7.63929e-09
ITEM: ATOMS id type xs ys zs 
1 1 -4.54081e-19 0 0 
2 1 0.5 0.5 0 
3 1 0.5 -1.35827e-18 0.5 
4 2 0.5 0 0 
5 2 -7.71127e-20 0.5 0 
6 2 0.5 0.5 0.5 
ITEM: TIMESTEP
88
ITEM: NUMBER OF ATOMS
6
ITEM: BOX BOUNDS xy xz yz pp pp pp
0.00109564 4.2989 7.57437e-09
0.01892 4.28108 7.62112e-09
0.00109564 4.2989 7.63836e-09
ITEM: ATOMS id type xs ys zs 
1 1 -4.54083e-19 0 0 
2 1 0.5 0.5 0 
3 1 0.5 -1.05846e-18 0.5 
4 2 0.5 0 0 
5 2 -8.84356e-20 0.5 0 
6 2 0.5 0.5 0.5 
ITEM: TIMESTEP
89
ITEM: NUMBER OF ATOMS
6
ITEM: BOX BOUNDS xy xz yz pp pp pp
0.00110701 4.29889 7.57272e-09
0.019135 4.28087 7.62001e-09
0.00110701 4.29889 7.63744e-09
ITEM: ATOMS id type xs ys zs 
1 1 -4.54086e-19 0 0 
2 1 0.5 0.5 0 
3 1 0.5 -1.27312e-18 0.5 
4 2 0.5 0 0 
5 2 -6.37261e-20 0.5 0 
6 2 0.5 0.5 0.5 
ITEM: TIMESTEP
90
ITEM: NUMBER OF ATOMS
6
ITEM: BOX BOUNDS xy xz yz pp pp pp
0.00111836 4.29888 7.57106e-09
0.01935 4.28065 7.61891e-09
0.00111836 4.29888 7.63651e-09
ITEM: ATOMS id type xs ys zs 
1 1 -4.54088e-19 0 0 
2 1 0.5 0.5 0 
3 1 0.5 -1.06253e-18 0.5 
4 2 0.5 0 0 
5 2 -5.37773e-20 0.5 0 
6 2 0.5 0.5 0.5 
ITEM: TIMESTEP
91
ITEM: NUMBER OF ATOMS
6
ITEM: BOX BOUNDS xy xz yz pp pp pp
0.00112968 4.29887 7.56941e-09
0.019565 4.28044 7.61781e-09
0.00112968 4.29887 7.63559e-09
ITEM: ATOMS id type xs ys zs 
1 1 -4.54091e-19 0 0 
2 1 0.5 0.5 0 
3 1 0.5 -1.17627e-18 0.5 
4 2 0.5 0 0 
5 2 -7.04586e-20 0.5 0 
6 2 0.5 0.5 0.5 
ITEM: TIMESTEP
92
ITEM: NUMBER OF ATOMS
6
ITEM: BOX BOUNDS xy xz yz pp pp pp
0.00114097 4.29886 7.56775e-09
0.01978 4.28022 7.61671e-09
0.00114097 4.29886 7.63466e-09
ITEM: ATOMS id type xs ys zs 
1 1 -4.54093e-19 0 0 
2 1 0.5 0.5 0 
3 1 0.5 -1.54396e-18 0.5 
4 2 0.5 0 0 
5 2 -5.45283e-20 0.5 0 
6 2 0.5 0.5 0.5 
ITEM: TIMESTEP
93
ITEM: NUMBER OF ATOMS
6
ITEM: BOX BOUNDS xy xz yz pp pp pp
0.00115225 4.29885 7.56609e-09
0.019995 4.28001 7.6156e-09
0.00115225 4.29885 7.63374e-09
ITEM: ATOMS id type xs ys zs 
1 1 -4.54095e-19 0 0 
2 1 0.5 0.5 0 
3 1 0.5 -1.24896e-18 0.5 
4 2 0.5 0 0 
5 2 -4.41508e-20 0.5 0 
6 2 0.5 0.5 0.5 
ITEM: TIMESTEP
94
ITEM: NUMBER OF ATOMS
6